Year;CITATION;SAMPLE NAME;UNIQUE_ID;LOCATION;LOCATION COMMENT;LATITUDE (MIN.);LONGITUDE (MIN.);LATITUDE (MAX.);LONGITUDE (MAX.);ELEVATION (MIN.);ELEVATION (MAX.);SAMPLING TECHNIQUE;DRILLING DEPTH (MIN.);DRILLING DEPTH (MAX.);LAND/SEA (SAMPLING);ROCK TYPE;ROCK NAME;ROCK TEXTURE;SAMPLE COMMENT;AGE (MIN.);AGE (MAX.);GEOLOGICAL AGE;GEOLOGICAL AGE PREFIX;ERUPTION YEAR;ALTERATION;ALTERATION TYPE;TYPE OF MATERIAL;MINERAL / COMPONENT;SPOT (MINERAL);CRYSTAL;RIM / CORE (MINERAL GRAINS);GRAIN SIZE;PRIMARY/SECONDARY;INCLUSION TYPE;SPOT (INCLUSION);MINERAL (INCLUSION);RIM / CORE (INCLUSION);HOSTMINERAL (INCLUSION);HEATING;HEATING TEMPERATURE (?C);SIO2(WT%);TIO2(WT%);AL2O3(WT%);CR2O3(WT%);V2O3(WT%);V2O5(WT%);FE2O3T(WT%);FE2O3(WT%);FEOT(WT%);FEO(WT%);CAO(WT%);MGO(WT%);MNO(WT%);BAO(WT%);SRO(WT%);NIO(WT%);ZNO(WT%);COO(WT%);K2O(WT%);;;;NA2O(WT%);;;;P2O5(WT%);H2O(WT%);H2OP(WT%);H2OM(WT%);CO2(WT%);F(WT%);CL(WT%);CL2(WT%);SO3(WT%);S(WT%);LOI(WT%);O(WT%);SI(WT%);AL(WT%);TI(WT%);FE(WT%);MG(WT%);MN(WT%);CA(WT%);K(WT%): altern. values or methods;;;;NA(WT%);CR(WT%);NI(WT%);HE(CCMSTP/G);HE3(CCMSTP/G);HE4(CCMSTP/G): altern. values or methods;;;;LI(PPM);BE(PPM);B(PPM);F(PPM);NE20(CCMSTP/G);NE22(CCMSTP/G);P(PPM);S(PPM);CL(PPM);AR36(CCMSTP/G);AR40(CCMSTP/G);AR40(MOL/G): altern. values or methods;;;;AR40(PPB);K(PPM);SC(PPM): altern. values or methods;;;;;;TI(PPM);V(PPM): altern. values or methods;;;;CR(PPM): altern. values or methods;;;;MN(PPM);FE(PPM);CO(PPM): altern. values or methods;;;;;;NI(PPM): altern. values or methods;;;;;;CU(PPM): altern. values or methods;;;;ZN(PPM): altern. values or methods;;;;GA(PPM): altern. values or methods;;;;GE(PPM);AS(PPM);KR84(CCMSTP/G);RB(PPM): altern. values or methods;;;;SR(PPM): altern. values or methods;;;;Y(PPM): altern. values or methods;;;;ZR(PPM): altern. values or methods;;;;NB(PPM): altern. values or methods;;;;MO(PPM);RU(PPB);RH(PPB);PD(PPB);IN(PPM);SN(PPM);SB(PPM);XE132(CCMSTP/G);CS(PPM);BA(PPM): altern. values or methods;;;;LA(PPM): altern. values or methods;;;;CE(PPM): altern. values or methods;;;;PR(PPM): altern. values or methods;;;;ND(PPM): altern. values or methods;;;;SM(PPM): altern. values or methods;;;;EU(PPM): altern. values or methods;;;;GD(PPM);TB(PPM): altern. values or methods;;;;DY(PPM);HO(PPM);ER(PPM);TM(PPM);YB(PPM): altern. values or methods;;;;LU(PPM);HF(PPM): altern. values or methods;;;;TA(PPM);W(PPM);RE(PPB): altern. values or methods;;;;RE(PPT);OS(PPB): altern. values or methods;;;;OS(PPT);IR(PPB);PT(PPB);AU(PPB);HG(PPB);TL(PPM);PB(PPM): altern. values or methods;;;;PB210_ACT(DPM/G);TH(PPM): altern. values or methods;;;;TH(PPB);U(PPM): altern. values or methods;;;;U(PPB);CO2(PPM);H2O(PPM);ND143_ND144;ND148_ND144;SM147_ND144;SR87_SR86;RB87_SR86;PB206_PB204: altern. values or methods;;;;PB206_PB207;PB206_PB208;PB207_PB204: altern. values or methods;;;;PB207_PB206;PB208_PB204: altern. values or methods;;;;PB208_PB206;OS187_OS186;OS187_OS188: altern. values or methods;;;;RE187_OS188: altern. values or methods;;;;HF176_HF177;HE3_HE4;HE3_HE4(R/R(A)): altern. values or methods;;;;HE4_HE3: altern. values or methods;;;;;;HE4_HE3(R/R(A)): altern. values or methods;;;;AR38_AR36;AR40_AR36;NE20_NE22;NE21_NE22;XE129_XE132;PB206_U238;PB207_U235;PB210_U238;TH232_U238;U238_PB204;D13C(VS SMOW);D17O(VS VSMOW);D18O(PER MIL);D18O(VS PDB);D18O(VS SMOW);D18O(VS VSMOW);D34S(VS CDT);D44_40CA(VS SRM915A);D56FE(VS IRMM-014);DD(VS SMOW);ALBITE(MOL%);ACMITE(MOL%);ANORTHITE(MOL%);ENSTATITE(MOL%);FAYALITE(MOL%);FORSTERITE(MOL%);FERROSILITE(MOL%);HEMATITE(MOL%);LARNITE(MOL%);ORTHOCLASE(MOL%);PSEUDOBROOKITE(MOL%);TEPHROITE(MOL%);ULVOSPINEL(MOL%);WOLLASTONITE(MOL%);AGE(KA);AGE(MA): altern. values or methods;;;;;;;;AGE_PB207_PB206(MA);AGE_PB207_U235(MA);AGE_PB206_U238(MA);
1990;[1415] LEOTOT C. (1990);samp. NU24;14378;SOCIETY ISLANDS / TAHITI / TARAVAO / PRE-CALDERA STAGE;;-17.75;-149.28;-17.75;-149.28;;;OUTCROP;;;SUBAERIAL;VOLCANIC ROCK;ANKARAMITE;;;;;;;;;;WHOLE ROCK;;;;;;;;;;;;;;;;;;;;;;;;;;;;;;;;;;;;;;;;;;;;;;;;;;;;;;;;;;;;;;;;;;;;;;;;;;;;;;;;;;;;;;;;;24.3;NOT;;;;;;;;;;1;NOT;;;;;55;NOT;;;;;56.9;NOT;;;;;;;;;;;;;;;;;;;;;;;;;;;;;;;;443;NOT;;;;;;;;;;;;;;;;392;NOT;;;50;NOT;;;122;NOT;;;;;;;65;NOT;;;13;NOT;;;4.3;NOT;;;;1.54;NOT;;;;;;;2.59;NOT;;;0.32;10.7;NOT;;;4.65;;;;;;;;;;;;;;;;;;;;;;5.1;NOT;;;;1.92;NOT;;;;;;;;;;;;;;;;;;;;;;;;;;;;;;;;;;;;;;;;;;;;;;;;;;;;;;;;;;;;;;;;;;;;;;;;;;;;;;;;;;;;;;;;;;;;;;;;;;
1972;[1420] STRONG D. F. (1972);samp. 15;;COMOROS / MOHELI (MWALI);;-12.28;43.71;-12.28;43.71;;;OUTCROP;;;SUBAERIAL;VOLCANIC ROCK;ANKARAMITE;;RIVER BOULDER;;;;;;;;WHOLE ROCK;;;;;;;;;;;;;;46.2;2.6;12.8;;;;;3.7;;8.8;10.9;8;0.2;;;;;;1.05;XRF;;;2.38;WET;;;0.95;1.34;;;;;;;;;;;;;;;;;;;;;;;;;;;;;;;;;;;;;;;;;;;;;;;;;;;;;;;;;;;;;;;;;;;;;;;;;;;;;;;;;;;;;;;;;;;;;;;;;;;;;;;;;;;;;;;;;;;;;;;;;;;;;;;;;;;;;;;;;;;;;;;;;;;;;;;;;;;;;;;;;;;;;;;;;;;;;;;;;;;;;;;;;;;;;;;;;;;;;;;;;;;;;;;;;;;;;;;;;;;;;;;;;;;;;;;;;;;;;;;;;;;;;;;;;;;;;;;;;;;;;;;;;;;;;;;;;;;;;;;;;;;;;;;;;;;;;
1972;[1420] STRONG D. F. (1972);samp. 19;;COMOROS / MOHELI (MWALI);;-12.28;43.71;-12.28;43.71;;;OUTCROP;;;SUBAERIAL;VOLCANIC ROCK;ANKARAMITE;;MIDDLE PHASE FLOW;;;;;;;;WHOLE ROCK;;;;;;;;;;;;;;44.21;2.36;10.08;;;;;3.46;;8.85;12.23;13.37;0.19;;;;;;1.1;XRF;;;1.83;WET;;;0.47;1.42;;;;;;;;;;;;;;;;;;;;;;;;;;;;;;;;;;;;;;;;;;;;;;;;;;;;;;;;;;;350;XRF;;;;;;;;;;;397;XRF;;;;;62;XRF;;;102;XRF;;;;;;;;;;135;XRF;;;514;XRF;;;;;;;190;XRF;;;;;;;;;;;;;;;;550;XRF;;;;;;;;;;;;;;;;;;;;;;;;;;;;;;;;;;;;;;;;;;;;;;;;;;;;;;;;;;;;;;;;;;;;;;;;;;;;;;;;;;;;;;;;;;;;;;;;;;;;;;;;;;;;;;;;;;;;;;;;;;;;;;;;;;;;;;;;;;;;;;;;;;;;;;;;;;;;;;;;;;;;;;;;;;;
1972;[1420] STRONG D. F. (1972);samp. 28;;COMOROS / MOHELI (MWALI);;-12.28;43.71;-12.28;43.71;;;OUTCROP;;;SUBAERIAL;VOLCANIC ROCK;ANKARAMITE;;RIVER BOULDER;;;;;;SLIGHTLY ALTERED;GROUNDMASS SLIGHTLY ALTERED;WHOLE ROCK;;;;;;;;;;;;;;44.19;1.99;8.71;;;;;2.26;;10.19;12;14.8;0.2;;;;;;0.83;XRF;;;1.4;WET;;;0.29;1.72;;;;;;;;;;;;;;;;;;;;;;;;;;;;;;;;;;;;;;;;;;;;;;;;;;;;;;;;;;;595;XRF;;;;;;;;;;;341;XRF;;;;;63;XRF;;;105;XRF;;;;;;;;;;26;XRF;;;387;XRF;;;;;;;144;XRF;;;;;;;;;;;;;;;;290;XRF;;;;;;;;;;;;;;;;;;;;;;;;;;;;;;;;;;;;;;;;;;;;;;;;;;;;;;;;;;;;;;;;;;;;;;;;;;;;;;;;;;;;;;;;;;;;;;;;;;;;;;;;;;;;;;;;;;;;;;;;;;;;;;;;;;;;;;;;;;;;;;;;;;;;;;;;;;;;;;;;;;;;;;;;;;;
1972;[1420] STRONG D. F. (1972);samp. 30;;COMOROS / MOHELI (MWALI);;-12.28;43.71;-12.28;43.71;;;OUTCROP;;;SUBAERIAL;VOLCANIC ROCK;ANKARAMITE;;RIVER BOULDER;;;;;;MODERATELY ALTERED;GROUNDMASS ALTERED;WHOLE ROCK;;;;;;;;;;;;;;42.3;2.29;8.5;;;;;3.4;;10.3;10.3;17.7;0.19;;;;;;0.75;XRF;;;1.26;WET;;;1.07;2.03;;;;;;;;;;;;;;;;;;;;;;;;;;;;;;;;;;;;;;;;;;;;;;;;;;;;;;;;;;;;;;;;;;;;;;;;;;;;;;;;;;;;;;;;;;;;;;;;;;;;;;;;;;;;;;;;;;;;;;;;;;;;;;;;;;;;;;;;;;;;;;;;;;;;;;;;;;;;;;;;;;;;;;;;;;;;;;;;;;;;;;;;;;;;;;;;;;;;;;;;;;;;;;;;;;;;;;;;;;;;;;;;;;;;;;;;;;;;;;;;;;;;;;;;;;;;;;;;;;;;;;;;;;;;;;;;;;;;;;;;;;;;;;;;;;;;;
1972;[1420] STRONG D. F. (1972);samp. 31;;COMOROS / MOHELI (MWALI);;-12.28;43.71;-12.28;43.71;;;OUTCROP;;;SUBAERIAL;VOLCANIC ROCK;ANKARAMITE;;RIVER BOULDER;;;;;;;;WHOLE ROCK;;;;;;;;;;;;;;45.82;2.33;11.92;;;;;5.77;;6.92;11.58;8.99;0.19;;;;;;0.94;XRF;;;2.15;WET;;;0.38;2.33;;;;;;;;;;;;;;;;;;;;;;;;;;;;;;;;;;;;;;;;;;;;;;;;;;;;;;;;;;;193;XRF;;;;;;;;;;;222;XRF;;;;;82;XRF;;;95;XRF;;;;;;;;;;22;XRF;;;645;XRF;;;;;;;190;XRF;;;;;;;;;;;;;;;;430;XRF;;;;;;;;;;;;;;;;;;;;;;;;;;;;;;;;;;;;;;;;;;;;;;;;;;;;;;;;;;;;;;;;;;;;;;;;;;;;;;;;;;;;;;;;;;;;;;;;;;;;;;;;;;;;;;;;;;;;;;;;;;;;;;;;;;;;;;;;;;;;;;;;;;;;;;;;;;;;;;;;;;;;;;;;;;;
1972;[1420] STRONG D. F. (1972);samp. 144;;COMOROS / MOHELI (MWALI);;-12.28;43.71;-12.28;43.71;;;OUTCROP;;;SUBAERIAL;VOLCANIC ROCK;ANKARAMITE;;MIDDLE PHASE FLOW;;;;;;;;WHOLE ROCK;;;;;;;;;;;;;;44.74;2.47;10.93;;;;;6.42;;6.91;12.23;10.12;0.19;;;;;;0.96;XRF;;;1.76;WET;;;0.44;1.93;;;;;;;;;;;;;;;;;;;;;;;;;;;;;;;;;;;;;;;;;;;;;;;;;;;;;;;;;;;;;;;;;;;;;;;;;;;;;68;XRF;;;102;XRF;;;;;;;;;;17;XRF;;;428;XRF;;;;;;;182;XRF;;;;;;;;;;;;;;;;538;XRF;;;;;;;;;;;;;;;;;;;;;;;;;;;;;;;;;;;;;;;;;;;;;;;;;;;;;;;;;;;;;;;;;;;;;;;;;;;;;;;;;;;;;;;;;;;;;;;;;;;;;;;;;;;;;;;;;;;;;;;;;;;;;;;;;;;;;;;;;;;;;;;;;;;;;;;;;;;;;;;;;;;;;;;;;;;
1972;[1420] STRONG D. F. (1972);samp. 150;;COMOROS / MOHELI (MWALI);;-12.28;43.71;-12.28;43.71;;;OUTCROP;;;SUBAERIAL;VOLCANIC ROCK;ANKARAMITE;;MIDDLE PHASE FLOW;;;;;;;;WHOLE ROCK;;;;;;;;;;;;;;45.69;2.34;10.06;;;;;3.88;;8.74;12.13;12.79;0.19;;;;;;0.9;XRF;;;2.07;WET;;;0.38;1.09;;;;;;;;;;;;;;;;;;;;;;;;;;;;;;;;;;;;;;;;;;;;;;;;;;;;;;;;;;;;;;;;;;;;;;;;;;;;;75;XRF;;;97;XRF;;;;;;;;;;23;XRF;;;473;XRF;;;;;;;167;XRF;;;;;;;;;;;;;;;;470;XRF;;;;;;;;;;;;;;;;;;;;;;;;;;;;;;;;;;;;;;;;;;;;;;;;;;;;;;;;;;;;;;;;;;;;;;;;;;;;;;;;;;;;;;;;;;;;;;;;;;;;;;;;;;;;;;;;;;;;;;;;;;;;;;;;;;;;;;;;;;;;;;;;;;;;;;;;;;;;;;;;;;;;;;;;;;;
1975;[1421] DALRYMPLE G. B. (1975);samp. PV500;;AUSTRAL-COOK ISLANDS / MANGAIA;;-21.93;-157.93;-21.93;-157.93;;;OUTCROP;;;SUBAERIAL;VOLCANIC ROCK;ANKARAMITE;;;16000000;20000000;MIOCENE;;;;;WHOLE ROCK;;;;;;;;;;;;;;;;;;;;;;;;;;;;;;;;0.849;AES;;;;;;;;;;;;;;;;;;;;;;;;;;;;;;;;;;;;;;;;;;;;;;;;;;2.327E-11;MS_ID;2.324E-11;MS_ID;;;;;;;;;;;;;;;;;;;;;;;;;;;;;;;;;;;;;;;;;;;;;;;;;;;;;;;;;;;;;;;;;;;;;;;;;;;;;;;;;;;;;;;;;;;;;;;;;;;;;;;;;;;;;;;;;;;;;;;;;;;;;;;;;;;;;;;;;;;;;;;;;;;;;;;;;;;;;;;;;;;;;;;;;;;;;;;;;;;;;;;;;;;;;;;;;;;;;;;;;;;;;;;;;;;;;;;;;;;;;;;;;;;;;;;;;;;;18400;;;;;;;;;;;;
1975;[1421] DALRYMPLE G. B. (1975);samp. PV535;;AUSTRAL-COOK ISLANDS / MANGAIA;;-21.93;-157.93;-21.93;-157.93;;;OUTCROP;;;SUBAERIAL;VOLCANIC ROCK;ANKARAMITE;;;16000000;20000000;MIOCENE;;;;;WHOLE ROCK;;;;;;;;;;;;;;;;;;;;;;;;;;;;;;;;0.292;AES;;;;;;;;;;;;;;;;;;;;;;;;;;;;;;;;;;;;;;;;;;;;;;;;;;7.2E-12;MS_ID;;;;;;;;;;;;;;;;;;;;;;;;;;;;;;;;;;;;;;;;;;;;;;;;;;;;;;;;;;;;;;;;;;;;;;;;;;;;;;;;;;;;;;;;;;;;;;;;;;;;;;;;;;;;;;;;;;;;;;;;;;;;;;;;;;;;;;;;;;;;;;;;;;;;;;;;;;;;;;;;;;;;;;;;;;;;;;;;;;;;;;;;;;;;;;;;;;;;;;;;;;;;;;;;;;;;;;;;;;;;;;;;;;;;;;;;;;;;;;16600;;;;;;;;;;;;
1975;[1421] DALRYMPLE G. B. (1975);samp. PV537;;AUSTRAL-COOK ISLANDS / MANGAIA;;-21.93;-157.93;-21.93;-157.93;;;OUTCROP;;;SUBAERIAL;VOLCANIC ROCK;ANKARAMITE;;;16000000;20000000;MIOCENE;;;;;WHOLE ROCK;;;;;;;;;;;;;;;;;;;;;;;;;;;;;;;;0.714;AES;;;;;;;;;;;;;;;;;;;;;;;;;;;;;;;;;;;;;;;;;;;;;;;;;;2.009E-11;MS_ID;;;;;;;;;;;;;;;;;;;;;;;;;;;;;;;;;;;;;;;;;;;;;;;;;;;;;;;;;;;;;;;;;;;;;;;;;;;;;;;;;;;;;;;;;;;;;;;;;;;;;;;;;;;;;;;;;;;;;;;;;;;;;;;;;;;;;;;;;;;;;;;;;;;;;;;;;;;;;;;;;;;;;;;;;;;;;;;;;;;;;;;;;;;;;;;;;;;;;;;;;;;;;;;;;;;;;;;;;;;;;;;;;;;;;;;;;;;;;;18900;;;;;;;;;;;;
1975;[1421] DALRYMPLE G. B. (1975);samp. PV538;;AUSTRAL-COOK ISLANDS / MANGAIA;;-21.93;-157.93;-21.93;-157.93;;;OUTCROP;;;SUBAERIAL;VOLCANIC ROCK;ANKARAMITE;;;16000000;20000000;MIOCENE;;;;;WHOLE ROCK;;;;;;;;;;;;;;;;;;;;;;;;;;;;;;;;0.267;AES;;;;;;;;;;;;;;;;;;;;;;;;;;;;;;;;;;;;;;;;;;;;;;;;;;6.77E-12;MS_ID;;;;;;;;;;;;;;;;;;;;;;;;;;;;;;;;;;;;;;;;;;;;;;;;;;;;;;;;;;;;;;;;;;;;;;;;;;;;;;;;;;;;;;;;;;;;;;;;;;;;;;;;;;;;;;;;;;;;;;;;;;;;;;;;;;;;;;;;;;;;;;;;;;;;;;;;;;;;;;;;;;;;;;;;;;;;;;;;;;;;;;;;;;;;;;;;;;;;;;;;;;;;;;;;;;;;;;;;;;;;;;;;;;;;;;;;;;;;;;17100;;;;;;;;;;;;
1975;[1421] DALRYMPLE G. B. (1975);samp. PV573;;AUSTRAL-COOK ISLANDS / RAROTONGA;;-21.25;-159.75;-21.25;-159.75;;;OUTCROP;;;SUBAERIAL;VOLCANIC ROCK;ANKARAMITE;;;1000000;2000000;PLEISTOCENE;;;;;WHOLE ROCK;;;;;;;;;;;;;;;;;;;;;;;;;;;;;;;;1.273;AES;;;;;;;;;;;;;;;;;;;;;;;;;;;;;;;;;;;;;;;;;;;;;;;;;;3.3E-12;MS_ID;;;;;;;;;;;;;;;;;;;;;;;;;;;;;;;;;;;;;;;;;;;;;;;;;;;;;;;;;;;;;;;;;;;;;;;;;;;;;;;;;;;;;;;;;;;;;;;;;;;;;;;;;;;;;;;;;;;;;;;;;;;;;;;;;;;;;;;;;;;;;;;;;;;;;;;;;;;;;;;;;;;;;;;;;;;;;;;;;;;;;;;;;;;;;;;;;;;;;;;;;;;;;;;;;;;;;;;;;;;;;;;;;;;;;;;;;;;;;;1750;;;;;;;;;;;;
1972;[1423] STRONG D. F. (1972);samp. 1;;COMOROS / GRANDE COMORE (NJAZIDJA) / MOUNT KARTHALA;;-11.35;43.2;-11.35;43.2;;;OUTCROP;;;SUBAERIAL;VOLCANIC ROCK;ANKARAMITE;PHYRIC;;;;;;;;;WHOLE ROCK;;;;;;;;;;;;;;47.05;2.38;13.23;;;;;2.53;;9.16;11.36;9.21;0.19;;;;;;1.25;NOT;;;2.89;NOT;;;0.43;0.42;;;;;;;;;;;;;;;;;;;;;;;;;;;;;;;;;;;;;;;;;;;;;;;;;;;;;;;;;;;337;NOT;;;;;;;;;;;212;NOT;;;;;102;NOT;;;93;NOT;;;;;;;;;;29;NOT;;;512;NOT;;;;;;;201;NOT;;;;;;;;;;;;;;;;381;NOT;;;;;;;;;;;;;;;;;;;;;;;;;;;;;;;;;;;;;;;;;;;;;;;;;;;;;;;;;;;;;;;;;;;;;;;;;;;;;;;;;;;;;;;;;;;;;;;;;;;;;;;;;;;;;;;;;;;;;;;;;;;;;;;;;;;;;;;;;;;;;;;;;;;;;;;;;;;;;;;;;;;;;;;;;;;
1972;[1423] STRONG D. F. (1972);samp. 13;;COMOROS / GRANDE COMORE (NJAZIDJA) / MOUNT KARTHALA;;-11.35;43.2;-11.35;43.2;;;OUTCROP;;;SUBAERIAL;VOLCANIC ROCK;ANKARAMITE;PHYRIC;;;;;;;;;WHOLE ROCK;;;;;;;;;;;;;;45.4;1.6;8.46;;;;;3.29;;8.42;11.79;17.43;0.2;;;;;;0.52;NOT;;;1.42;NOT;;;0.26;0.86;;;;;;;;;;;;;;;;;;;;;;;;;;;;;;;;;;;;;;;;;;;;;;;;;;;;;;;;;;;;;;;;;;;;;;;;;;;;;93;NOT;;;85;NOT;;;;;;;;;;14;NOT;;;288;NOT;;;;;;;121;NOT;;;;;;;;;;;;;;;;280;NOT;;;;;;;;;;;;;;;;;;;;;;;;;;;;;;;;;;;;;;;;;;;;;;;;;;;;;;;;;;;;;;;;;;;;;;;;;;;;;;;;;;;;;;;;;;;;;;;;;;;;;;;;;;;;;;;;;;;;;;;;;;;;;;;;;;;;;;;;;;;;;;;;;;;;;;;;;;;;;;;;;;;;;;;;;;;
1972;[1423] STRONG D. F. (1972);samp. 41;;COMOROS / GRANDE COMORE (NJAZIDJA) / MOUNT KARTHALA;;-11.35;43.2;-11.35;43.2;;;OUTCROP;;;SUBAERIAL;VOLCANIC ROCK;ANKARAMITE;PHYRIC;;;;;;;;;WHOLE ROCK;;;;;;;;;;;;;;47.37;1.91;11.75;;;;;1.88;;9.19;12.92;11.22;0.18;;;;;;0.83;NOT;;;2.58;NOT;;;0.3;0.13;;;;;;;;;;;;;;;;;;;;;;;;;;;;;;;;;;;;;;;;;;;;;;;;;;;;;;;;;;;450;NOT;;;;;;;;;;;176;NOT;;;;;116;NOT;;;85;NOT;;;;;;;;;;24;NOT;;;360;NOT;;;;;;;168;NOT;;;;;;;;;;;;;;;;370;NOT;;;;;;;;;;;;;;;;;;;;;;;;;;;;;;;;;;;;;;;;;;;;;;;;;;;;;;;;;;;;;;;;;;;;;;;;;;;;;;;;;;;;;;;;;;;;;;;;;;;;;;;;;;;;;;;;;;;;;;;;;;;;;;;;;;;;;;;;;;;;;;;;;;;;;;;;;;;;;;;;;;;;;;;;;;;
1972;[1423] STRONG D. F. (1972);samp. 1;;COMOROS / GRANDE COMORE (NJAZIDJA) / MOUNT KARTHALA;;-11.35;43.2;-11.35;43.2;;;OUTCROP;;;SUBAERIAL;VOLCANIC ROCK;ANKARAMITE;PHYRIC;;;;;;;;;MINERAL / COMPONENT (INCL. GROUNDMASS);CLINOPYROXENE;;PHENOCRYST;;;PRIMARY;;;;;;;;51.19;1.08;4.68;0.27;;;;0.47;;5.55;20.81;15.49;0.11;;;;;;0.11;XRF;;;0.55;XRF;;;0.11;0.15;;;;;;;;;;;;;;;;;;;;;;;;;;;;;;;;;;;;;;;;;;;;;;;;;;;;;;;;;;;1850;XRF;;;;;;;;;;;360;XRF;;;;;18;XRF;;;44;XRF;;;;;;;;;;;;;;74;XRF;;;;;;;67;XRF;;;;;;;;;;;;;;;;45;XRF;;;;;;;;;;;;;;;;;;;;;;;;;;;;;;;;;;;;;;;;;;;;;;;;;;;;;;;;;;;;;;;;;;;;;;;;;;;;;;;;;;;;;;;;;;;;;;;;;;;;;;;;;;;;;;;;;;;;;;;;;;;;;;;;;;;;;;;;;;;;;;;;;;;;;;;;;;;;;;;;;;;;;;;;;;;
1972;[1423] STRONG D. F. (1972);samp. 13;;COMOROS / GRANDE COMORE (NJAZIDJA) / MOUNT KARTHALA;;-11.35;43.2;-11.35;43.2;;;OUTCROP;;;SUBAERIAL;VOLCANIC ROCK;ANKARAMITE;PHYRIC;;;;;;;;;MINERAL / COMPONENT (INCL. GROUNDMASS);CLINOPYROXENE;;PHENOCRYST;;;PRIMARY;;;;;;;;50.84;0.88;3.99;0.44;;;;1.3;;3.85;21.63;15.7;0.1;;;;;;0.02;XRF;;;0.34;XRF;;;0.1;0.09;;;;;;;;;;;;;;;;;;;;;;;;;;;;;;;;;;;;;;;;;;;;;;;;;;;;;;;;;;;3020;XRF;;;;;;;;;;;200;XRF;;;;;13;XRF;;;36;XRF;;;;;;;;;;;;;;50;XRF;;;;;;;44;XRF;;;;;;;;;;;;;;;;72;XRF;;;;;;;;;;;;;;;;;;;;;;;;;;;;;;;;;;;;;;;;;;;;;;;;;;;;;;;;;;;;;;;;;;;;;;;;;;;;;;;;;;;;;;;;;;;;;;;;;;;;;;;;;;;;;;;;;;;;;;;;;;;;;;;;;;;;;;;;;;;;;;;;;;;;;;;;;;;;;;;;;;;;;;;;;;;
1976;[1464] SCOTT P. W. (1976);samp. MA15;;CANARY ISLANDS / TENERIFE;TENO MASSIF;28.3;-16.6;28.3;-16.6;;;OUTCROP;;;SUBAERIAL;VOLCANIC ROCK;ANKARAMITE;;;;;;;;;;MINERAL / COMPONENT (INCL. GROUNDMASS);CLINOPYROXENE;;PHENOCRYST;;;PRIMARY;;;;;;;;47.56;2.55;5.96;;;;;3.4;;4.41;21.26;12.61;0.94;;;;;;0.06;WET;;;0.62;WET;;;;;;;;;;;;;;;;;;;;;;;;;;;;;;;;;;;;;;;;;;;;;;;;;;;;;;;;;;;;;;;;;;;;;;;;;;;;;;;;;;;;;;;;;;;;;;;;;;;;;;;;;;;;;;;;;;;;;;;;;;;;;;;;;;;;;;;;;;;;;;;;;;;;;;;;;;;;;;;;;;;;;;;;;;;;;;;;;;;;;;;;;;;;;;;;;;;;;;;;;;;;;;;;;;;;;;;;;;;;;;;;;;;;;;;;;;;;;;;;;;;;;;;;;;;;;;;;;;;;;;;;;;;;;;;;;;;;;;;;;;;;;;;;;;;;;;;;;
1976;[1464] SCOTT P. W. (1976);samp. MA3;;CANARY ISLANDS / TENERIFE;ANAGA PENINSULA;28.3;-16.6;28.3;-16.6;;;OUTCROP;;;SUBAERIAL;VOLCANIC ROCK;ANKARAMITE;;;;;;;;;;MINERAL / COMPONENT (INCL. GROUNDMASS);CLINOPYROXENE;;PHENOCRYST;CORE;;PRIMARY;;;;;;;;51.4;1.3;3.2;;;;;;;4.8;23.5;15.9;0.1;;;;;;;;;;0.3;EMP (EPMA);;;;;;;;;;;;;;;;;;;;;;;;;;;;;;;;;;;;;;;;;;;;;;;;;;;;;;;;;;;;;;;;;;;;;;;;;;;;;;;;;;;;;;;;;;;;;;;;;;;;;;;;;;;;;;;;;;;;;;;;;;;;;;;;;;;;;;;;;;;;;;;;;;;;;;;;;;;;;;;;;;;;;;;;;;;;;;;;;;;;;;;;;;;;;;;;;;;;;;;;;;;;;;;;;;;;;;;;;;;;;;;;;;;;;;;;;;;;;;;;;;;;;;;;;;;;;;;;;;;;;;;;;;;;;;;;;;;;;;;;;;;;;;;;;;;;;;;;;
1976;[1464] SCOTT P. W. (1976);samp. MA3;;CANARY ISLANDS / TENERIFE;ANAGA PENINSULA;28.3;-16.6;28.3;-16.6;;;OUTCROP;;;SUBAERIAL;VOLCANIC ROCK;ANKARAMITE;;;;;;;;;;MINERAL / COMPONENT (INCL. GROUNDMASS);CLINOPYROXENE;;GROUNDMASS;;;PRIMARY;;;;;;;;43.8;4.8;7.8;;;;;;;9.1;22.4;11.8;0.2;;;;;;;;;;0.5;EMP (EPMA);;;;;;;;;;;;;;;;;;;;;;;;;;;;;;;;;;;;;;;;;;;;;;;;;;;;;;;;;;;;;;;;;;;;;;;;;;;;;;;;;;;;;;;;;;;;;;;;;;;;;;;;;;;;;;;;;;;;;;;;;;;;;;;;;;;;;;;;;;;;;;;;;;;;;;;;;;;;;;;;;;;;;;;;;;;;;;;;;;;;;;;;;;;;;;;;;;;;;;;;;;;;;;;;;;;;;;;;;;;;;;;;;;;;;;;;;;;;;;;;;;;;;;;;;;;;;;;;;;;;;;;;;;;;;;;;;;;;;;;;;;;;;;;;;;;;;;;;;
1976;[1464] SCOTT P. W. (1976);samp. MA19;;CANARY ISLANDS / TENERIFE;TENO MASSIF;28.3;-16.6;28.3;-16.6;;;OUTCROP;;;SUBAERIAL;VOLCANIC ROCK;ANKARAMITE;;;;;;;;;;MINERAL / COMPONENT (INCL. GROUNDMASS);CLINOPYROXENE;;PHENOCRYST;CORE;;PRIMARY;;;;;;;;50.5;1;4.3;;;;;;;5.6;22;15.3;0.1;;;;;;;;;;0.5;EMP (EPMA);;;;;;;;;;;;;;;;;;;;;;;;;;;;;;;;;;;;;;;;;;;;;;;;;;;;;;;;;;;;;;;;;;;;;;;;;;;;;;;;;;;;;;;;;;;;;;;;;;;;;;;;;;;;;;;;;;;;;;;;;;;;;;;;;;;;;;;;;;;;;;;;;;;;;;;;;;;;;;;;;;;;;;;;;;;;;;;;;;;;;;;;;;;;;;;;;;;;;;;;;;;;;;;;;;;;;;;;;;;;;;;;;;;;;;;;;;;;;;;;;;;;;;;;;;;;;;;;;;;;;;;;;;;;;;;;;;;;;;;;;;;;;;;;;;;;;;;;;
1970;[1468] HAWKINS T. R. W. (1970);samp. NC15M;;JAN MAYEN / JAN MAYEN / NORD-JAN / NORDVESTKAPP FORMATION;KRATERLIA CLIFF, SOUTH OF NORDBUKTA;71;-8.5;71;-8.5;;;OUTCROP;;;SUBAERIAL;VOLCANIC ROCK;ANKARAMITE;;CHROMIAN DIOPSIDES FROM POTASH ANKARAMITES;;;;;;;;MINERAL / COMPONENT (INCL. GROUNDMASS);CLINOPYROXENE;;;;;PRIMARY;;;;;;;;52.44;0.49;1.69;0.75;;;;1.24;;1.97;22.94;16.83;0.1;;;0.02;;;0.01;EMP (EPMA);;;0.45;WET;;;;;;;;;;;;;;;;;;;;;;;;;;;;;;;;;;;;;;;;;;;;;;;;;;;;;;;;;;;;;;;;;;;;;;;;;;;;;;;;;;;;;;;;;;;;;;;;;;;;;;;;;;;;;;;;;;;;;;;;;;;;;;;;;;;;;;;;;;;;;;;;;;;;;;;;;;;;;;;;;;;;;;;;;;;;;;;;;;;;;;;;;;;;;;;;;;;;;;;;;;;;;;;;;;;;;;;;;;;;;;;;;;;;;;;;;;;;;;;;;;;;;;;;;;;;;;;;;;;;;;;;;;;;;;;;;;;;;;;;;;;;;;;;;;;;;;;;;
1970;[1468] HAWKINS T. R. W. (1970);samp. NC15N;;JAN MAYEN / JAN MAYEN / NORD-JAN / NORDVESTKAPP FORMATION;KRATERLIA CLIFF, SOUTH OF NORDBUKTA;71;-8.5;71;-8.5;;;OUTCROP;;;SUBAERIAL;VOLCANIC ROCK;ANKARAMITE;;CHROMIAN DIOPSIDES FROM POTASH ANKARAMITES;;;;;;;;MINERAL / COMPONENT (INCL. GROUNDMASS);CLINOPYROXENE;;;;;PRIMARY;;;;;;;;52.63;0.5;1.82;0.69;;;;1.31;;2.03;22.81;17;0.07;;;0.05;;;0.02;EMP (EPMA);;;0.45;WET;;;;;;;;;;;;;;;;;;;;;;;;;;;;;;;;;;;;;;;;;;;;;;;;;;;;;;;;;;;;;;;;;;;;;;;;;;;;;;;;;;;;;;;;;;;;;;;;;;;;;;;;;;;;;;;;;;;;;;;;;;;;;;;;;;;;;;;;;;;;;;;;;;;;;;;;;;;;;;;;;;;;;;;;;;;;;;;;;;;;;;;;;;;;;;;;;;;;;;;;;;;;;;;;;;;;;;;;;;;;;;;;;;;;;;;;;;;;;;;;;;;;;;;;;;;;;;;;;;;;;;;;;;;;;;;;;;;;;;;;;;;;;;;;;;;;;;;;;
1970;[1468] HAWKINS T. R. W. (1970);samp. NC19D;;JAN MAYEN / JAN MAYEN / NORD-JAN / STORFJELLET FORMATION;NORD-JAN,;71;-8.5;71;-8.5;;;OUTCROP;;;SUBAERIAL;VOLCANIC ROCK;ANKARAMITE;;CHROMIAN DIOPSIDES FROM POTASH ANKARAMITES;;;;;;;;MINERAL / COMPONENT (INCL. GROUNDMASS);CLINOPYROXENE;;;;;PRIMARY;;;;;;;;51.01;0.74;3.08;0.49;;;;1.83;;2.88;23.11;15.97;0.11;;;0.02;;;0.02;EMP (EPMA);;;0.45;WET;;;;;;;;;;;;;;;;;;;;;;;;;;;;;;;;;;;;;;;;;;;;;;;;;;;;;;;;;;;;;;;;;;;;;;;;;;;;;;;;;;;;;;;;;;;;;;;;;;;;;;;;;;;;;;;;;;;;;;;;;;;;;;;;;;;;;;;;;;;;;;;;;;;;;;;;;;;;;;;;;;;;;;;;;;;;;;;;;;;;;;;;;;;;;;;;;;;;;;;;;;;;;;;;;;;;;;;;;;;;;;;;;;;;;;;;;;;;;;;;;;;;;;;;;;;;;;;;;;;;;;;;;;;;;;;;;;;;;;;;;;;;;;;;;;;;;;;;;
1970;[1468] HAWKINS T. R. W. (1970);samp. NC19G;;JAN MAYEN / JAN MAYEN / NORD-JAN / STORFJELLET FORMATION;NORD-JAN,;71;-8.5;71;-8.5;;;OUTCROP;;;SUBAERIAL;VOLCANIC ROCK;ANKARAMITE;;CHROMIAN DIOPSIDES FROM POTASH ANKARAMITES;;;;;;;;MINERAL / COMPONENT (INCL. GROUNDMASS);CLINOPYROXENE;;;;;PRIMARY;;;;;;;;53.01;0.42;1.78;0.58;;;;1.35;;2.11;22.28;17.42;0.1;;;;;;0.01;EMP (EPMA);;;0.45;WET;;;;;;;;;;;;;;;;;;;;;;;;;;;;;;;;;;;;;;;;;;;;;;;;;;;;;;;;;;;;;;;;;;;;;;;;;;;;;;;;;;;;;;;;;;;;;;;;;;;;;;;;;;;;;;;;;;;;;;;;;;;;;;;;;;;;;;;;;;;;;;;;;;;;;;;;;;;;;;;;;;;;;;;;;;;;;;;;;;;;;;;;;;;;;;;;;;;;;;;;;;;;;;;;;;;;;;;;;;;;;;;;;;;;;;;;;;;;;;;;;;;;;;;;;;;;;;;;;;;;;;;;;;;;;;;;;;;;;;;;;;;;;;;;;;;;;;;;;