Year;CITATION;SAMPLE NAME;UNIQUE_ID;LOCATION;LOCATION COMMENT;LATITUDE (MIN.);LONGITUDE (MIN.);LATITUDE (MAX.);LONGITUDE (MAX.);ELEVATION (MIN.);ELEVATION (MAX.);SAMPLING TECHNIQUE;DRILLING DEPTH (MIN.);DRILLING DEPTH (MAX.);LAND/SEA (SAMPLING);ROCK TYPE;ROCK NAME;ROCK TEXTURE;SAMPLE COMMENT;AGE (MIN.);AGE (MAX.);GEOLOGICAL AGE;GEOLOGICAL AGE PREFIX;ERUPTION YEAR;ALTERATION;ALTERATION TYPE;TYPE OF MATERIAL;MINERAL / COMPONENT;SPOT (MINERAL);CRYSTAL;RIM / CORE (MINERAL GRAINS);GRAIN SIZE;PRIMARY/SECONDARY;INCLUSION TYPE;SPOT (INCLUSION);MINERAL (INCLUSION);RIM / CORE (INCLUSION);HOSTMINERAL (INCLUSION);HEATING;HEATING TEMPERATURE (?C);SIO2(WT%);TIO2(WT%);AL2O3(WT%);CR2O3(WT%);V2O3(WT%);V2O5(WT%);FE2O3T(WT%);FE2O3(WT%);FEOT(WT%);FEO(WT%);CAO(WT%);MGO(WT%);MNO(WT%);BAO(WT%);SRO(WT%);NIO(WT%);ZNO(WT%);COO(WT%);K2O(WT%);;;;NA2O(WT%);;;;P2O5(WT%);H2O(WT%);H2OP(WT%);H2OM(WT%);CO2(WT%);F(WT%);CL(WT%);CL2(WT%);SO3(WT%);S(WT%);LOI(WT%);O(WT%);SI(WT%);AL(WT%);TI(WT%);FE(WT%);MG(WT%);MN(WT%);CA(WT%);K(WT%): altern. values or methods;;;;NA(WT%);CR(WT%);NI(WT%);HE(CCMSTP/G);HE3(CCMSTP/G);HE4(CCMSTP/G): altern. values or methods;;;;LI(PPM);BE(PPM);B(PPM);F(PPM);NE20(CCMSTP/G);NE22(CCMSTP/G);P(PPM);S(PPM);CL(PPM);AR36(CCMSTP/G);AR40(CCMSTP/G);AR40(MOL/G): altern. values or methods;;;;AR40(PPB);K(PPM);SC(PPM): altern. values or methods;;;;;;TI(PPM);V(PPM): altern. values or methods;;;;CR(PPM): altern. values or methods;;;;MN(PPM);FE(PPM);CO(PPM): altern. values or methods;;;;;;NI(PPM): altern. values or methods;;;;;;CU(PPM): altern. values or methods;;;;ZN(PPM): altern. values or methods;;;;GA(PPM): altern. values or methods;;;;GE(PPM);AS(PPM);KR84(CCMSTP/G);RB(PPM): altern. values or methods;;;;SR(PPM): altern. values or methods;;;;Y(PPM): altern. values or methods;;;;ZR(PPM): altern. values or methods;;;;NB(PPM): altern. values or methods;;;;MO(PPM);RU(PPB);RH(PPB);PD(PPB);IN(PPM);SN(PPM);SB(PPM);XE132(CCMSTP/G);CS(PPM);BA(PPM): altern. values or methods;;;;LA(PPM): altern. values or methods;;;;CE(PPM): altern. values or methods;;;;PR(PPM): altern. values or methods;;;;ND(PPM): altern. values or methods;;;;SM(PPM): altern. values or methods;;;;EU(PPM): altern. values or methods;;;;GD(PPM);TB(PPM): altern. values or methods;;;;DY(PPM);HO(PPM);ER(PPM);TM(PPM);YB(PPM): altern. values or methods;;;;LU(PPM);HF(PPM): altern. values or methods;;;;TA(PPM);W(PPM);RE(PPB): altern. values or methods;;;;RE(PPT);OS(PPB): altern. values or methods;;;;OS(PPT);IR(PPB);PT(PPB);AU(PPB);HG(PPB);TL(PPM);PB(PPM): altern. values or methods;;;;PB210_ACT(DPM/G);TH(PPM): altern. values or methods;;;;TH(PPB);U(PPM): altern. values or methods;;;;U(PPB);CO2(PPM);H2O(PPM);ND143_ND144;ND148_ND144;SM147_ND144;SR87_SR86;RB87_SR86;PB206_PB204: altern. values or methods;;;;PB206_PB207;PB206_PB208;PB207_PB204: altern. values or methods;;;;PB207_PB206;PB208_PB204: altern. values or methods;;;;PB208_PB206;OS187_OS186;OS187_OS188: altern. values or methods;;;;RE187_OS188: altern. values or methods;;;;HF176_HF177;HE3_HE4;HE3_HE4(R/R(A)): altern. values or methods;;;;HE4_HE3: altern. values or methods;;;;;;HE4_HE3(R/R(A)): altern. values or methods;;;;AR38_AR36;AR40_AR36;NE20_NE22;NE21_NE22;XE129_XE132;PB206_U238;PB207_U235;PB210_U238;TH232_U238;U238_PB204;D13C(VS SMOW);D17O(VS VSMOW);D18O(PER MIL);D18O(VS PDB);D18O(VS SMOW);D18O(VS VSMOW);D34S(VS CDT);D44_40CA(VS SRM915A);D56FE(VS IRMM-014);DD(VS SMOW);ALBITE(MOL%);ACMITE(MOL%);ANORTHITE(MOL%);ENSTATITE(MOL%);FAYALITE(MOL%);FORSTERITE(MOL%);FERROSILITE(MOL%);HEMATITE(MOL%);LARNITE(MOL%);ORTHOCLASE(MOL%);PSEUDOBROOKITE(MOL%);TEPHROITE(MOL%);ULVOSPINEL(MOL%);WOLLASTONITE(MOL%);AGE(KA);AGE(MA): altern. values or methods;;;;;;;;AGE_PB207_PB206(MA);AGE_PB207_U235(MA);AGE_PB206_U238(MA);
2004;[7554] HODYCH J. P. (2004);samp. SC-1;;APPALACHIANS / NORTHERN APPALACHIANS / HUMBER ZONE / SKINNER COVE FORMATION;;46.9;-55.4;46.9;-55.4;;;OUTCROP;;;SUBAERIAL;VOLCANIC ROCK;ANKARAMITE;;FLOW;550000000;550000000;PROTEROZOIC;NEO;;;;MINERAL / COMPONENT (INCL. GROUNDMASS);ZIRCON;1-4B;;;;PRIMARY;;;;;;;;;;;;;;;;;;;;;;;;;;;;;;;;;;;;;;;;;;;;;;;;;;;;;;;;;;;;;;;;;;;;;;;;;;;;;;;;;;;;;;;;;;;;;;;;;;;;;;;;;;;;;;;;;;;;;;;;;;;;;;;;;;;;;;;;;;;;;;;;;;;;;;;;;;;;;;;;;;;;;;;;;;;;;;;;;;;;;;;;;;;;;;;;;;;;;;;;;;;;;;;;;;;;;;;;;;;;;;;;;;;;;235;ICPMS_LAM;;;;;;;;;;;;;;;;;;;;;0.0598;;;;;0.1586;;;;;;;;;;;;;;;;;;;;;;;;;;;;;;;0.0891;0.7406;;0.5123;;;;;;;;;;;;;;;;;;;;;;;;;;;;;;;;;;;598;589;550;
2004;[7554] HODYCH J. P. (2004);samp. SC-1;;APPALACHIANS / NORTHERN APPALACHIANS / HUMBER ZONE / SKINNER COVE FORMATION;;46.9;-55.4;46.9;-55.4;;;OUTCROP;;;SUBAERIAL;VOLCANIC ROCK;ANKARAMITE;;FLOW;550000000;550000000;PROTEROZOIC;NEO;;;;MINERAL / COMPONENT (INCL. GROUNDMASS);ZIRCON;1-5;;;;PRIMARY;;;;;;;;;;;;;;;;;;;;;;;;;;;;;;;;;;;;;;;;;;;;;;;;;;;;;;;;;;;;;;;;;;;;;;;;;;;;;;;;;;;;;;;;;;;;;;;;;;;;;;;;;;;;;;;;;;;;;;;;;;;;;;;;;;;;;;;;;;;;;;;;;;;;;;;;;;;;;;;;;;;;;;;;;;;;;;;;;;;;;;;;;;;;;;;;;;;;;;;;;;;;;;;;;;;;;;;;;;;;;;;;;;;;;475;ICPMS_LAM;;;;;;;;;;;;;;;;;;;;;0.0596;;;;;0.2218;;;;;;;;;;;;;;;;;;;;;;;;;;;;;;;0.0891;0.7476;;0.7163;;;;;;;;;;;;;;;;;;;;;;;;;;;;;;;;;;;587;567;550;
2004;[7554] HODYCH J. P. (2004);samp. SC-1;;APPALACHIANS / NORTHERN APPALACHIANS / HUMBER ZONE / SKINNER COVE FORMATION;;46.9;-55.4;46.9;-55.4;;;OUTCROP;;;SUBAERIAL;VOLCANIC ROCK;ANKARAMITE;;FLOW;550000000;550000000;PROTEROZOIC;NEO;;;;MINERAL / COMPONENT (INCL. GROUNDMASS);ZIRCON;1-6;;;;PRIMARY;;;;;;;;;;;;;;;;;;;;;;;;;;;;;;;;;;;;;;;;;;;;;;;;;;;;;;;;;;;;;;;;;;;;;;;;;;;;;;;;;;;;;;;;;;;;;;;;;;;;;;;;;;;;;;;;;;;;;;;;;;;;;;;;;;;;;;;;;;;;;;;;;;;;;;;;;;;;;;;;;;;;;;;;;;;;;;;;;;;;;;;;;;;;;;;;;;;;;;;;;;;;;;;;;;;;;;;;;;;;;;;;;;;;;418;ICPMS_LAM;;;;;;;;;;;;;;;;;;;;;0.0569;;;;;0.1545;;;;;;;;;;;;;;;;;;;;;;;;;;;;;;;0.0878;0.7086;;0.499;;;;;;;;;;;;;;;;;;;;;;;;;;;;;;;;;;;489;544;543;
2004;[7554] HODYCH J. P. (2004);samp. SC-1;;APPALACHIANS / NORTHERN APPALACHIANS / HUMBER ZONE / SKINNER COVE FORMATION;;46.9;-55.4;46.9;-55.4;;;OUTCROP;;;SUBAERIAL;VOLCANIC ROCK;ANKARAMITE;;FLOW;550000000;550000000;PROTEROZOIC;NEO;;;;MINERAL / COMPONENT (INCL. GROUNDMASS);ZIRCON;1-7;;;;PRIMARY;;;;;;;;;;;;;;;;;;;;;;;;;;;;;;;;;;;;;;;;;;;;;;;;;;;;;;;;;;;;;;;;;;;;;;;;;;;;;;;;;;;;;;;;;;;;;;;;;;;;;;;;;;;;;;;;;;;;;;;;;;;;;;;;;;;;;;;;;;;;;;;;;;;;;;;;;;;;;;;;;;;;;;;;;;;;;;;;;;;;;;;;;;;;;;;;;;;;;;;;;;;;;;;;;;;;;;;;;;;;;;;;;;;;;188;ICPMS_LAM;;;;;;;;;;;;;;;;;;;;;0.0575;;;;;0.1168;;;;;;;;;;;;;;;;;;;;;;;;;;;;;;;0.0907;0.7284;;0.3774;;;;;;;;;;;;;;;;;;;;;;;;;;;;;;;;;;;512;556;560;
2004;[7554] HODYCH J. P. (2004);samp. SC-1;;APPALACHIANS / NORTHERN APPALACHIANS / HUMBER ZONE / SKINNER COVE FORMATION;;46.9;-55.4;46.9;-55.4;;;OUTCROP;;;SUBAERIAL;VOLCANIC ROCK;ANKARAMITE;;FLOW;550000000;550000000;PROTEROZOIC;NEO;;;;MINERAL / COMPONENT (INCL. GROUNDMASS);ZIRCON;1-8;;;;PRIMARY;;;;;;;;;;;;;;;;;;;;;;;;;;;;;;;;;;;;;;;;;;;;;;;;;;;;;;;;;;;;;;;;;;;;;;;;;;;;;;;;;;;;;;;;;;;;;;;;;;;;;;;;;;;;;;;;;;;;;;;;;;;;;;;;;;;;;;;;;;;;;;;;;;;;;;;;;;;;;;;;;;;;;;;;;;;;;;;;;;;;;;;;;;;;;;;;;;;;;;;;;;;;;;;;;;;;;;;;;;;;;;;;;;;;;274;ICPMS_LAM;;;;;;;;;;;;;;;;;;;;;0.0562;;;;;0.1702;;;;;;;;;;;;;;;;;;;;;;;;;;;;;;;0.0894;0.7076;;0.565;;;;;;;;;;;;;;;;;;;;;;;;;;;;;;;;;;;462;543;552;
2004;[7554] HODYCH J. P. (2004);samp. SC-1;;APPALACHIANS / NORTHERN APPALACHIANS / HUMBER ZONE / SKINNER COVE FORMATION;;46.9;-55.4;46.9;-55.4;;;OUTCROP;;;SUBAERIAL;VOLCANIC ROCK;ANKARAMITE;;FLOW;550000000;550000000;PROTEROZOIC;NEO;;;;MINERAL / COMPONENT (INCL. GROUNDMASS);ZIRCON;1-9;;;;PRIMARY;;;;;;;;;;;;;;;;;;;;;;;;;;;;;;;;;;;;;;;;;;;;;;;;;;;;;;;;;;;;;;;;;;;;;;;;;;;;;;;;;;;;;;;;;;;;;;;;;;;;;;;;;;;;;;;;;;;;;;;;;;;;;;;;;;;;;;;;;;;;;;;;;;;;;;;;;;;;;;;;;;;;;;;;;;;;;;;;;;;;;;;;;;;;;;;;;;;;;;;;;;;;;;;;;;;;;;;;;;;;;;;;;;;;;223;ICPMS_LAM;;;;;;;;;;;;;;;;;;;;;0.0656;;;;;0.1576;;;;;;;;;;;;;;;;;;;;;;;;;;;;;;;0.0972;0.9033;;0.5233;;;;;;;;;;;;;;;;;;;;;;;;;;;;;;;;;;;795;654;598;
2004;[7554] HODYCH J. P. (2004);samp. SC-1;;APPALACHIANS / NORTHERN APPALACHIANS / HUMBER ZONE / SKINNER COVE FORMATION;;46.9;-55.4;46.9;-55.4;;;OUTCROP;;;SUBAERIAL;VOLCANIC ROCK;ANKARAMITE;;FLOW;550000000;550000000;PROTEROZOIC;NEO;;;;MINERAL / COMPONENT (INCL. GROUNDMASS);ZIRCON;1-10A;;;;PRIMARY;;;;;;;;;;;;;;;;;;;;;;;;;;;;;;;;;;;;;;;;;;;;;;;;;;;;;;;;;;;;;;;;;;;;;;;;;;;;;;;;;;;;;;;;;;;;;;;;;;;;;;;;;;;;;;;;;;;;;;;;;;;;;;;;;;;;;;;;;;;;;;;;;;;;;;;;;;;;;;;;;;;;;;;;;;;;;;;;;;;;;;;;;;;;;;;;;;;;;;;;;;;;;;;;;;;;;;;;;;;;;;;;;;;;;129;ICPMS_LAM;;;;;;;;;;;;;;;;;;;;;0.0506;;;;;0.127;;;;;;;;;;;;;;;;;;;;;;;;;;;;;;;0.0872;0.63;;0.4216;;;;;;;;;;;;;;;;;;;;;;;;;;;;;;;;;;;223;496;539;
2004;[7554] HODYCH J. P. (2004);samp. SC-1;;APPALACHIANS / NORTHERN APPALACHIANS / HUMBER ZONE / SKINNER COVE FORMATION;;46.9;-55.4;46.9;-55.4;;;OUTCROP;;;SUBAERIAL;VOLCANIC ROCK;ANKARAMITE;;FLOW;550000000;550000000;PROTEROZOIC;NEO;;;;MINERAL / COMPONENT (INCL. GROUNDMASS);ZIRCON;1-10B;;;;PRIMARY;;;;;;;;;;;;;;;;;;;;;;;;;;;;;;;;;;;;;;;;;;;;;;;;;;;;;;;;;;;;;;;;;;;;;;;;;;;;;;;;;;;;;;;;;;;;;;;;;;;;;;;;;;;;;;;;;;;;;;;;;;;;;;;;;;;;;;;;;;;;;;;;;;;;;;;;;;;;;;;;;;;;;;;;;;;;;;;;;;;;;;;;;;;;;;;;;;;;;;;;;;;;;;;;;;;;;;;;;;;;;;;;;;;;;164;ICPMS_LAM;;;;;;;;;;;;;;;;;;;;;0.0526;;;;;0.0515;;;;;;;;;;;;;;;;;;;;;;;;;;;;;;;0.0907;0.682;;0.1709;;;;;;;;;;;;;;;;;;;;;;;;;;;;;;;;;;;313;528;560;
2004;[7554] HODYCH J. P. (2004);samp. SC-1;;APPALACHIANS / NORTHERN APPALACHIANS / HUMBER ZONE / SKINNER COVE FORMATION;;46.9;-55.4;46.9;-55.4;;;OUTCROP;;;SUBAERIAL;VOLCANIC ROCK;ANKARAMITE;;FLOW;550000000;550000000;PROTEROZOIC;NEO;;;;MINERAL / COMPONENT (INCL. GROUNDMASS);ZIRCON;1-11;;;;PRIMARY;;;;;;;;;;;;;;;;;;;;;;;;;;;;;;;;;;;;;;;;;;;;;;;;;;;;;;;;;;;;;;;;;;;;;;;;;;;;;;;;;;;;;;;;;;;;;;;;;;;;;;;;;;;;;;;;;;;;;;;;;;;;;;;;;;;;;;;;;;;;;;;;;;;;;;;;;;;;;;;;;;;;;;;;;;;;;;;;;;;;;;;;;;;;;;;;;;;;;;;;;;;;;;;;;;;;;;;;;;;;;;;;;;;;;158;ICPMS_LAM;;;;;;;;;;;;;;;;;;;;;0.0579;;;;;0.0605;;;;;;;;;;;;;;;;;;;;;;;;;;;;;;;0.0893;0.7128;;0.201;;;;;;;;;;;;;;;;;;;;;;;;;;;;;;;;;;;525;546;551;
2004;[7554] HODYCH J. P. (2004);samp. SC-1;;APPALACHIANS / NORTHERN APPALACHIANS / HUMBER ZONE / SKINNER COVE FORMATION;;46.9;-55.4;46.9;-55.4;;;OUTCROP;;;SUBAERIAL;VOLCANIC ROCK;ANKARAMITE;;FLOW;550000000;550000000;PROTEROZOIC;NEO;;;;MINERAL / COMPONENT (INCL. GROUNDMASS);ZIRCON;2-1A;;;;PRIMARY;;;;;;;;;;;;;;;;;;;;;;;;;;;;;;;;;;;;;;;;;;;;;;;;;;;;;;;;;;;;;;;;;;;;;;;;;;;;;;;;;;;;;;;;;;;;;;;;;;;;;;;;;;;;;;;;;;;;;;;;;;;;;;;;;;;;;;;;;;;;;;;;;;;;;;;;;;;;;;;;;;;;;;;;;;;;;;;;;;;;;;;;;;;;;;;;;;;;;;;;;;;;;;;;;;;;;;;;;;;;;;;;;;;;;983;ICPMS_LAM;;;;;;;;;;;;;;;;;;;;;0.0756;;;;;0.0335;;;;;;;;;;;;;;;;;;;;;;;;;;;;;;;0.1847;1.936;;0.1135;;;;;;;;;;;;;;;;;;;;;;;;;;;;;;;;;;;1095;1094;1093;
2004;[7554] HODYCH J. P. (2004);samp. SC-1;;APPALACHIANS / NORTHERN APPALACHIANS / HUMBER ZONE / SKINNER COVE FORMATION;;46.9;-55.4;46.9;-55.4;;;OUTCROP;;;SUBAERIAL;VOLCANIC ROCK;ANKARAMITE;;FLOW;550000000;550000000;PROTEROZOIC;NEO;;;;MINERAL / COMPONENT (INCL. GROUNDMASS);ZIRCON;2-1B;;;;PRIMARY;;;;;;;;;;;;;;;;;;;;;;;;;;;;;;;;;;;;;;;;;;;;;;;;;;;;;;;;;;;;;;;;;;;;;;;;;;;;;;;;;;;;;;;;;;;;;;;;;;;;;;;;;;;;;;;;;;;;;;;;;;;;;;;;;;;;;;;;;;;;;;;;;;;;;;;;;;;;;;;;;;;;;;;;;;;;;;;;;;;;;;;;;;;;;;;;;;;;;;;;;;;;;;;;;;;;;;;;;;;;;;;;;;;;;1723;ICPMS_LAM;;;;;;;;;;;;;;;;;;;;;0.0724;;;;;0.0883;;;;;;;;;;;;;;;;;;;;;;;;;;;;;;;0.1391;1.4144;;0.2993;;;;;;;;;;;;;;;;;;;;;;;;;;;;;;;;;;;998;895;840;
2004;[7554] HODYCH J. P. (2004);samp. SC-1;;APPALACHIANS / NORTHERN APPALACHIANS / HUMBER ZONE / SKINNER COVE FORMATION;;46.9;-55.4;46.9;-55.4;;;OUTCROP;;;SUBAERIAL;VOLCANIC ROCK;ANKARAMITE;;FLOW;550000000;550000000;PROTEROZOIC;NEO;;;;MINERAL / COMPONENT (INCL. GROUNDMASS);ZIRCON;2-2A;;;;PRIMARY;;;;;;;;;;;;;;;;;;;;;;;;;;;;;;;;;;;;;;;;;;;;;;;;;;;;;;;;;;;;;;;;;;;;;;;;;;;;;;;;;;;;;;;;;;;;;;;;;;;;;;;;;;;;;;;;;;;;;;;;;;;;;;;;;;;;;;;;;;;;;;;;;;;;;;;;;;;;;;;;;;;;;;;;;;;;;;;;;;;;;;;;;;;;;;;;;;;;;;;;;;;;;;;;;;;;;;;;;;;;;;;;;;;;;203;ICPMS_LAM;;;;;;;;;;;;;;;;;;;;;0.0572;;;;;0.1381;;;;;;;;;;;;;;;;;;;;;;;;;;;;;;;0.0896;0.7223;;0.446;;;;;;;;;;;;;;;;;;;;;;;;;;;;;;;;;;;500;552;553;
2004;[7554] HODYCH J. P. (2004);samp. SC-1;;APPALACHIANS / NORTHERN APPALACHIANS / HUMBER ZONE / SKINNER COVE FORMATION;;46.9;-55.4;46.9;-55.4;;;OUTCROP;;;SUBAERIAL;VOLCANIC ROCK;ANKARAMITE;;FLOW;550000000;550000000;PROTEROZOIC;NEO;;;;MINERAL / COMPONENT (INCL. GROUNDMASS);ZIRCON;2-2B;;;;PRIMARY;;;;;;;;;;;;;;;;;;;;;;;;;;;;;;;;;;;;;;;;;;;;;;;;;;;;;;;;;;;;;;;;;;;;;;;;;;;;;;;;;;;;;;;;;;;;;;;;;;;;;;;;;;;;;;;;;;;;;;;;;;;;;;;;;;;;;;;;;;;;;;;;;;;;;;;;;;;;;;;;;;;;;;;;;;;;;;;;;;;;;;;;;;;;;;;;;;;;;;;;;;;;;;;;;;;;;;;;;;;;;;;;;;;;;61;ICPMS_LAM;;;;;;;;;;;;;;;;;;;;;0.0606;;;;;0.0629;;;;;;;;;;;;;;;;;;;;;;;;;;;;;;;0.0886;0.7451;;0.2031;;;;;;;;;;;;;;;;;;;;;;;;;;;;;;;;;;;624;565;547;
2004;[7554] HODYCH J. P. (2004);samp. SC-1;;APPALACHIANS / NORTHERN APPALACHIANS / HUMBER ZONE / SKINNER COVE FORMATION;;46.9;-55.4;46.9;-55.4;;;OUTCROP;;;SUBAERIAL;VOLCANIC ROCK;ANKARAMITE;;FLOW;550000000;550000000;PROTEROZOIC;NEO;;;;MINERAL / COMPONENT (INCL. GROUNDMASS);ZIRCON;2-3;;;;PRIMARY;;;;;;;;;;;;;;;;;;;;;;;;;;;;;;;;;;;;;;;;;;;;;;;;;;;;;;;;;;;;;;;;;;;;;;;;;;;;;;;;;;;;;;;;;;;;;;;;;;;;;;;;;;;;;;;;;;;;;;;;;;;;;;;;;;;;;;;;;;;;;;;;;;;;;;;;;;;;;;;;;;;;;;;;;;;;;;;;;;;;;;;;;;;;;;;;;;;;;;;;;;;;;;;;;;;;;;;;;;;;;;;;;;;;;87;ICPMS_LAM;;;;;;;;;;;;;;;;;;;;;0.0554;;;;;0.1087;;;;;;;;;;;;;;;;;;;;;;;;;;;;;;;0.0918;0.7146;;0.3511;;;;;;;;;;;;;;;;;;;;;;;;;;;;;;;;;;;429;547;566;
2004;[7554] HODYCH J. P. (2004);samp. SC-1;;APPALACHIANS / NORTHERN APPALACHIANS / HUMBER ZONE / SKINNER COVE FORMATION;;46.9;-55.4;46.9;-55.4;;;OUTCROP;;;SUBAERIAL;VOLCANIC ROCK;ANKARAMITE;;FLOW;550000000;550000000;PROTEROZOIC;NEO;;;;MINERAL / COMPONENT (INCL. GROUNDMASS);ZIRCON;2-4A;;;;PRIMARY;;;;;;;;;;;;;;;;;;;;;;;;;;;;;;;;;;;;;;;;;;;;;;;;;;;;;;;;;;;;;;;;;;;;;;;;;;;;;;;;;;;;;;;;;;;;;;;;;;;;;;;;;;;;;;;;;;;;;;;;;;;;;;;;;;;;;;;;;;;;;;;;;;;;;;;;;;;;;;;;;;;;;;;;;;;;;;;;;;;;;;;;;;;;;;;;;;;;;;;;;;;;;;;;;;;;;;;;;;;;;;;;;;;;;128;ICPMS_LAM;;;;;;;;;;;;;;;;;;;;;0.0594;;;;;0.1336;;;;;;;;;;;;;;;;;;;;;;;;;;;;;;;0.0836;0.7069;;0.4316;;;;;;;;;;;;;;;;;;;;;;;;;;;;;;;;;;;582;543;517;
2004;[7554] HODYCH J. P. (2004);samp. SC-1;;APPALACHIANS / NORTHERN APPALACHIANS / HUMBER ZONE / SKINNER COVE FORMATION;;46.9;-55.4;46.9;-55.4;;;OUTCROP;;;SUBAERIAL;VOLCANIC ROCK;ANKARAMITE;;FLOW;550000000;550000000;PROTEROZOIC;NEO;;;;MINERAL / COMPONENT (INCL. GROUNDMASS);ZIRCON;2-4B;;;;PRIMARY;;;;;;;;;;;;;;;;;;;;;;;;;;;;;;;;;;;;;;;;;;;;;;;;;;;;;;;;;;;;;;;;;;;;;;;;;;;;;;;;;;;;;;;;;;;;;;;;;;;;;;;;;;;;;;;;;;;;;;;;;;;;;;;;;;;;;;;;;;;;;;;;;;;;;;;;;;;;;;;;;;;;;;;;;;;;;;;;;;;;;;;;;;;;;;;;;;;;;;;;;;;;;;;;;;;;;;;;;;;;;;;;;;;;;334;ICPMS_LAM;;;;;;;;;;;;;;;;;;;;;0.0571;;;;;0.166;;;;;;;;;;;;;;;;;;;;;;;;;;;;;;;0.0912;0.7077;;0.5361;;;;;;;;;;;;;;;;;;;;;;;;;;;;;;;;;;;494;543;563;
2004;[7554] HODYCH J. P. (2004);samp. SC-1;;APPALACHIANS / NORTHERN APPALACHIANS / HUMBER ZONE / SKINNER COVE FORMATION;;46.9;-55.4;46.9;-55.4;;;OUTCROP;;;SUBAERIAL;VOLCANIC ROCK;ANKARAMITE;;FLOW;550000000;550000000;PROTEROZOIC;NEO;;;;MINERAL / COMPONENT (INCL. GROUNDMASS);ZIRCON;2-5;;;;PRIMARY;;;;;;;;;;;;;;;;;;;;;;;;;;;;;;;;;;;;;;;;;;;;;;;;;;;;;;;;;;;;;;;;;;;;;;;;;;;;;;;;;;;;;;;;;;;;;;;;;;;;;;;;;;;;;;;;;;;;;;;;;;;;;;;;;;;;;;;;;;;;;;;;;;;;;;;;;;;;;;;;;;;;;;;;;;;;;;;;;;;;;;;;;;;;;;;;;;;;;;;;;;;;;;;;;;;;;;;;;;;;;;;;;;;;;246;ICPMS_LAM;;;;;;;;;;;;;;;;;;;;;0.0574;;;;;0.1369;;;;;;;;;;;;;;;;;;;;;;;;;;;;;;;0.0893;0.7404;;0.4421;;;;;;;;;;;;;;;;;;;;;;;;;;;;;;;;;;;505;563;552;
2004;[7554] HODYCH J. P. (2004);samp. SC-1;;APPALACHIANS / NORTHERN APPALACHIANS / HUMBER ZONE / SKINNER COVE FORMATION;;46.9;-55.4;46.9;-55.4;;;OUTCROP;;;SUBAERIAL;VOLCANIC ROCK;ANKARAMITE;;FLOW;550000000;550000000;PROTEROZOIC;NEO;;;;MINERAL / COMPONENT (INCL. GROUNDMASS);ZIRCON;2-6;;;;PRIMARY;;;;;;;;;;;;;;;;;;;;;;;;;;;;;;;;;;;;;;;;;;;;;;;;;;;;;;;;;;;;;;;;;;;;;;;;;;;;;;;;;;;;;;;;;;;;;;;;;;;;;;;;;;;;;;;;;;;;;;;;;;;;;;;;;;;;;;;;;;;;;;;;;;;;;;;;;;;;;;;;;;;;;;;;;;;;;;;;;;;;;;;;;;;;;;;;;;;;;;;;;;;;;;;;;;;;;;;;;;;;;;;;;;;;;158;ICPMS_LAM;;;;;;;;;;;;;;;;;;;;;0.0649;;;;;0.1071;;;;;;;;;;;;;;;;;;;;;;;;;;;;;;;0.0866;0.8238;;0.346;;;;;;;;;;;;;;;;;;;;;;;;;;;;;;;;;;;772;610;535;
2004;[7554] HODYCH J. P. (2004);samp. SC-1;;APPALACHIANS / NORTHERN APPALACHIANS / HUMBER ZONE / SKINNER COVE FORMATION;;46.9;-55.4;46.9;-55.4;;;OUTCROP;;;SUBAERIAL;VOLCANIC ROCK;ANKARAMITE;;FLOW;550000000;550000000;PROTEROZOIC;NEO;;;;MINERAL / COMPONENT (INCL. GROUNDMASS);ZIRCON;2-7;;;;PRIMARY;;;;;;;;;;;;;;;;;;;;;;;;;;;;;;;;;;;;;;;;;;;;;;;;;;;;;;;;;;;;;;;;;;;;;;;;;;;;;;;;;;;;;;;;;;;;;;;;;;;;;;;;;;;;;;;;;;;;;;;;;;;;;;;;;;;;;;;;;;;;;;;;;;;;;;;;;;;;;;;;;;;;;;;;;;;;;;;;;;;;;;;;;;;;;;;;;;;;;;;;;;;;;;;;;;;;;;;;;;;;;;;;;;;;;633;ICPMS_LAM;;;;;;;;;;;;;;;;;;;;;0.0561;;;;;0.284;;;;;;;;;;;;;;;;;;;;;;;;;;;;;;;0.082;0.6238;;0.9173;;;;;;;;;;;;;;;;;;;;;;;;;;;;;;;;;;;455;492;508;
2004;[7554] HODYCH J. P. (2004);samp. SC-1;;APPALACHIANS / NORTHERN APPALACHIANS / HUMBER ZONE / SKINNER COVE FORMATION;;46.9;-55.4;46.9;-55.4;;;OUTCROP;;;SUBAERIAL;VOLCANIC ROCK;ANKARAMITE;;FLOW;550000000;550000000;PROTEROZOIC;NEO;;;;MINERAL / COMPONENT (INCL. GROUNDMASS);ZIRCON;3-1A;;;;PRIMARY;;;;;;;;;;;;;;;;;;;;;;;;;;;;;;;;;;;;;;;;;;;;;;;;;;;;;;;;;;;;;;;;;;;;;;;;;;;;;;;;;;;;;;;;;;;;;;;;;;;;;;;;;;;;;;;;;;;;;;;;;;;;;;;;;;;;;;;;;;;;;;;;;;;;;;;;;;;;;;;;;;;;;;;;;;;;;;;;;;;;;;;;;;;;;;;;;;;;;;;;;;;;;;;;;;;;;;;;;;;;;;;;;;;;;459;ICPMS_LAM;;;;;;;;;;;;;;;;;;;;;0.0569;;;;;0.2021;;;;;;;;;;;;;;;;;;;;;;;;;;;;;;;0.0928;0.733;;0.6528;;;;;;;;;;;;;;;;;;;;;;;;;;;;;;;;;;;488;558;572;
2004;[7554] HODYCH J. P. (2004);samp. SC-1;;APPALACHIANS / NORTHERN APPALACHIANS / HUMBER ZONE / SKINNER COVE FORMATION;;46.9;-55.4;46.9;-55.4;;;OUTCROP;;;SUBAERIAL;VOLCANIC ROCK;ANKARAMITE;;FLOW;550000000;550000000;PROTEROZOIC;NEO;;;;MINERAL / COMPONENT (INCL. GROUNDMASS);ZIRCON;3-1B;;;;PRIMARY;;;;;;;;;;;;;;;;;;;;;;;;;;;;;;;;;;;;;;;;;;;;;;;;;;;;;;;;;;;;;;;;;;;;;;;;;;;;;;;;;;;;;;;;;;;;;;;;;;;;;;;;;;;;;;;;;;;;;;;;;;;;;;;;;;;;;;;;;;;;;;;;;;;;;;;;;;;;;;;;;;;;;;;;;;;;;;;;;;;;;;;;;;;;;;;;;;;;;;;;;;;;;;;;;;;;;;;;;;;;;;;;;;;;;122;ICPMS_LAM;;;;;;;;;;;;;;;;;;;;;0.0586;;;;;0.1547;;;;;;;;;;;;;;;;;;;;;;;;;;;;;;;0.093;0.78;;0.4997;;;;;;;;;;;;;;;;;;;;;;;;;;;;;;;;;;;551;586;573;
1994;[7654] HARANGI S. (1994);samp. MS1;;CARPATHIAN BELT AND PANNONIAN BASIN / SOUTHERN PANNONIAN-EASTERN CARPATHIAN (TISZA-DACIA / MECSEK MOUNTAINS;SINGODOR VALLEY;46.21;18.32;46.21;18.32;;;OUTCROP;;;SUBAERIAL;VOLCANIC ROCK;ANKARAMITE;;;;;CRETACEOUS;LOWER;;;;WHOLE ROCK;;;;;;;;;;;;;;44.39;3.39;13.29;;;;;1.36;;10.61;9.78;11.11;0.17;;;;;;1.08;XRF;;;2.82;AAS;;;0.6;;;;;;;;;;1.41;;;;;;;;;;;;;;;;;;;;;;;;;;;;;;;;;;;;;;;25.2;INAA;;;;;;321;XRF;;;528;XRF;;;;;57;INAA;;;;;231;XRF;;;;;;;;;120;INAA;;;;;;;;;;12;XRF;;;634;XRF;;;18;XRF;;;221;XRF;;;39;XRF;;;;;;;;;;;;339;XRF;;;32;INAA;;;65;INAA;;;;;;;50;INAA;;;7.89;INAA;;;2.69;INAA;;;;1.22;INAA;;;;;;;1.49;INAA;;;0.21;6.1;INAA;;;2.17;;;;;;;;;;;;;;;;;;;;;;2.7;INAA;;;;0.9;INAA;;;;;;0.51286;;;0.70313;;;;;;;;;;;;;;;;;;;;;;;;;;;;;;;;;;;;;;;;;;;;;;;;;;;;;;;;;;;;;;;;;;;;;;;;;;;;;;;;;;;;;;;;;
1994;[7654] HARANGI S. (1994);samp. 92/14;;CARPATHIAN BELT AND PANNONIAN BASIN / SOUTHERN PANNONIAN-EASTERN CARPATHIAN (TISZA-DACIA / MECSEK MOUNTAINS;HODACS;46.24;18.33;46.24;18.33;;;OUTCROP;;;SUBAERIAL;VOLCANIC ROCK;ANKARAMITE;;;;;CRETACEOUS;LOWER;;;;WHOLE ROCK;;;;;;;;;;;;;;43.01;4.55;12.7;;;;;4.79;;8.93;11.71;8.78;0.18;;;;;;0.53;XRF;;;2.39;AAS;;;0.54;;;;;;;;;;1.89;;;;;;;;;;;;;;;;;;;;;;;;;;;;;;;;;;;;;;;27.6;INAA;;;;;;422;XRF;;;273;XRF;;;;;54;INAA;;;;;120;XRF;;;;;;;;;137;INAA;;;;;;;;;;7;XRF;;;942;XRF;;;22;XRF;;;256;XRF;;;49;XRF;;;;;;;;;;;;426;XRF;;;39;INAA;;;74;INAA;;;;;;;46;INAA;;;9.03;INAA;;;3.15;INAA;;;;1.13;INAA;;;;;;;1.84;INAA;;;0.24;6.9;INAA;;;3.05;;;;;;;;;;;;;;;;;;;;;;3.7;INAA;;;;1.2;INAA;;;;;;0.51286;;;0.70306;;;;;;;;;;;;;;;;;;;;;;;;;;;;;;;;;;;;;;;;;;;;;;;;;;;;;;;;;;;;;;;;;;;;;;;;;;;;;;;;;;;;;;;;;