Year;CITATION;SAMPLE NAME;UNIQUE_ID;LOCATION;LOCATION COMMENT;LATITUDE (MIN.);LONGITUDE (MIN.);LATITUDE (MAX.);LONGITUDE (MAX.);ELEVATION (MIN.);ELEVATION (MAX.);SAMPLING TECHNIQUE;DRILLING DEPTH (MIN.);DRILLING DEPTH (MAX.);LAND/SEA (SAMPLING);ROCK TYPE;ROCK NAME;ROCK TEXTURE;SAMPLE COMMENT;AGE (MIN.);AGE (MAX.);GEOLOGICAL AGE;GEOLOGICAL AGE PREFIX;ERUPTION YEAR;ALTERATION;ALTERATION TYPE;TYPE OF MATERIAL;MINERAL / COMPONENT;SPOT (MINERAL);CRYSTAL;RIM / CORE (MINERAL GRAINS);GRAIN SIZE;PRIMARY/SECONDARY;INCLUSION TYPE;SPOT (INCLUSION);MINERAL (INCLUSION);RIM / CORE (INCLUSION);HOSTMINERAL (INCLUSION);HEATING;HEATING TEMPERATURE (?C);SIO2(WT%);TIO2(WT%);AL2O3(WT%);CR2O3(WT%);V2O3(WT%);V2O5(WT%);FE2O3T(WT%);FE2O3(WT%);FEOT(WT%);FEO(WT%);CAO(WT%);MGO(WT%);MNO(WT%);BAO(WT%);SRO(WT%);NIO(WT%);ZNO(WT%);COO(WT%);K2O(WT%);;;;NA2O(WT%);;;;P2O5(WT%);H2O(WT%);H2OP(WT%);H2OM(WT%);CO2(WT%);F(WT%);CL(WT%);CL2(WT%);SO3(WT%);S(WT%);LOI(WT%);O(WT%);SI(WT%);AL(WT%);TI(WT%);FE(WT%);MG(WT%);MN(WT%);CA(WT%);K(WT%): altern. values or methods;;;;NA(WT%);CR(WT%);NI(WT%);HE(CCMSTP/G);HE3(CCMSTP/G);HE4(CCMSTP/G): altern. values or methods;;;;LI(PPM);BE(PPM);B(PPM);F(PPM);NE20(CCMSTP/G);NE22(CCMSTP/G);P(PPM);S(PPM);CL(PPM);AR36(CCMSTP/G);AR40(CCMSTP/G);AR40(MOL/G): altern. values or methods;;;;AR40(PPB);K(PPM);SC(PPM): altern. values or methods;;;;;;TI(PPM);V(PPM): altern. values or methods;;;;CR(PPM): altern. values or methods;;;;MN(PPM);FE(PPM);CO(PPM): altern. values or methods;;;;;;NI(PPM): altern. values or methods;;;;;;CU(PPM): altern. values or methods;;;;ZN(PPM): altern. values or methods;;;;GA(PPM): altern. values or methods;;;;GE(PPM);AS(PPM);KR84(CCMSTP/G);RB(PPM): altern. values or methods;;;;SR(PPM): altern. values or methods;;;;Y(PPM): altern. values or methods;;;;ZR(PPM): altern. values or methods;;;;NB(PPM): altern. values or methods;;;;MO(PPM);RU(PPB);RH(PPB);PD(PPB);IN(PPM);SN(PPM);SB(PPM);XE132(CCMSTP/G);CS(PPM);BA(PPM): altern. values or methods;;;;LA(PPM): altern. values or methods;;;;CE(PPM): altern. values or methods;;;;PR(PPM): altern. values or methods;;;;ND(PPM): altern. values or methods;;;;SM(PPM): altern. values or methods;;;;EU(PPM): altern. values or methods;;;;GD(PPM);TB(PPM): altern. values or methods;;;;DY(PPM);HO(PPM);ER(PPM);TM(PPM);YB(PPM): altern. values or methods;;;;LU(PPM);HF(PPM): altern. values or methods;;;;TA(PPM);W(PPM);RE(PPB): altern. values or methods;;;;RE(PPT);OS(PPB): altern. values or methods;;;;OS(PPT);IR(PPB);PT(PPB);AU(PPB);HG(PPB);TL(PPM);PB(PPM): altern. values or methods;;;;PB210_ACT(DPM/G);TH(PPM): altern. values or methods;;;;TH(PPB);U(PPM): altern. values or methods;;;;U(PPB);CO2(PPM);H2O(PPM);ND143_ND144;ND148_ND144;SM147_ND144;SR87_SR86;RB87_SR86;PB206_PB204: altern. values or methods;;;;PB206_PB207;PB206_PB208;PB207_PB204: altern. values or methods;;;;PB207_PB206;PB208_PB204: altern. values or methods;;;;PB208_PB206;OS187_OS186;OS187_OS188: altern. values or methods;;;;RE187_OS188: altern. values or methods;;;;HF176_HF177;HE3_HE4;HE3_HE4(R/R(A)): altern. values or methods;;;;HE4_HE3: altern. values or methods;;;;;;HE4_HE3(R/R(A)): altern. values or methods;;;;AR38_AR36;AR40_AR36;NE20_NE22;NE21_NE22;XE129_XE132;PB206_U238;PB207_U235;PB210_U238;TH232_U238;U238_PB204;D13C(VS SMOW);D17O(VS VSMOW);D18O(PER MIL);D18O(VS PDB);D18O(VS SMOW);D18O(VS VSMOW);D34S(VS CDT);D44_40CA(VS SRM915A);D56FE(VS IRMM-014);DD(VS SMOW);ALBITE(MOL%);ACMITE(MOL%);ANORTHITE(MOL%);ENSTATITE(MOL%);FAYALITE(MOL%);FORSTERITE(MOL%);FERROSILITE(MOL%);HEMATITE(MOL%);LARNITE(MOL%);ORTHOCLASE(MOL%);PSEUDOBROOKITE(MOL%);TEPHROITE(MOL%);ULVOSPINEL(MOL%);WOLLASTONITE(MOL%);AGE(KA);AGE(MA): altern. values or methods;;;;;;;;AGE_PB207_PB206(MA);AGE_PB207_U235(MA);AGE_PB206_U238(MA);
2000;[4847] RODRIGUEZ-LOSADA J. A. (2000);samp. F-1-B;;CANARY ISLANDS / TENERIFE;PUNTA POYATA MINERALIZATION, TAGANANA AREA, NW OF ANAGA MASSIF;28.5;-16.3;28.5;-16.3;130;130;OUTCROP;;;SUBAERIAL;VOLCANIC ROCK;ANKARAMITE;;;;;;;;EXTENSIVELY ALTERED;HYDROTHERMAL ALTERATION;MINERAL / COMPONENT (INCL. GROUNDMASS);CALCITE;;;;;PRIMARY;;;;;;;;;;;;;;;;;;;;;;;;;;;;;;;;;;;;;;;;;;;;;;;;;;;;;;;;;;;;;;;;;;;;;;;;;;;;;;;;;;;;;;;;;;;;;;;;;;;;;;;;;;;;;;;;;;;;;;;;;;;;;;;;;;;;;;;;;;;;;;;;;;;;;;;;;;;;;;;;;;;;;;;;;;;;;;;;;;;;;;;;;;;;;;;;;;;;;;;;;;;;;;;;;;;;;;;;;;;;;;;;;;;;;;;;;;;;;;;;;;;;;;;;;;;;;;;;;;;;;;;;;;;;;;;;;;;;;;;;;;;;;;;;;;;;1.98;;;24.31;;;;;;;;;;;;;;;;;;;;;;;;;;;;;;;;;
2000;[4847] RODRIGUEZ-LOSADA J. A. (2000);samp. F-2A-RED;;CANARY ISLANDS / TENERIFE;PUNTA POYATA MINERALIZATION, TAGANANA AREA, NW OF ANAGA MASSIF;28.5;-16.3;28.5;-16.3;130;130;OUTCROP;;;SUBAERIAL;VOLCANIC ROCK;ANKARAMITE;;;;;;;;EXTENSIVELY ALTERED;HYDROTHERMAL ALTERATION;MINERAL / COMPONENT (INCL. GROUNDMASS);CALCITE;;;;;PRIMARY;;;;;;;;;;;;;;;;;;;;;;;;;;;;;;;;;;;;;;;;;;;;;;;;;;;;;;;;;;;;;;;;;;;;;;;;;;;;;;;;;;;;;;;;;;;;;;;;;;;;;;;;;;;;;;;;;;;;;;;;;;;;;;;;;;;;;;;;;;;;;;;;;;;;;;;;;;;;;;;;;;;;;;;;;;;;;;;;;;;;;;;;;;;;;;;;;;;;;;;;;;;;;;;;;;;;;;;;;;;;;;;;;;;;;;;;;;;;;;;;;;;;;;;;;;;;;;;;;;;;;;;;;;;;;;;;;;;;;;;;;;;;;;;;;;;;2.15;;;24.29;;;;;;;;;;;;;;;;;;;;;;;;;;;;;;;;;
2000;[4847] RODRIGUEZ-LOSADA J. A. (2000);samp. CALC-2;;CANARY ISLANDS / TENERIFE;PUNTA POYATA MINERALIZATION, TAGANANA AREA, NW OF ANAGA MASSIF;28.5;-16.3;28.5;-16.3;130;130;OUTCROP;;;SUBAERIAL;VOLCANIC ROCK;ANKARAMITE;;;;;;;;EXTENSIVELY ALTERED;HYDROTHERMAL ALTERATION;MINERAL / COMPONENT (INCL. GROUNDMASS);CALCITE;;;;;PRIMARY;;;;;;;;;;;;;;;;;;;;;;;;;;;;;;;;;;;;;;;;;;;;;;;;;;;;;;;;;;;;;;;;;;;;;;;;;;;;;;;;;;;;;;;;;;;;;;;;;;;;;;;;;;;;;;;;;;;;;;;;;;;;;;;;;;;;;;;;;;;;;;;;;;;;;;;;;;;;;;;;;;;;;;;;;;;;;;;;;;;;;;;;;;;;;;;;;;;;;;;;;;;;;;;;;;;;;;;;;;;;;;;;;;;;;;;;;;;;;;;;;;;;;;;;;;;;;;;;;;;;;;;;;;;;;;;;;;;;;;;;;;;;;;;;;;;;-20.02;;;29.72;;;;;;;;;;;;;;;;;;;;;;;;;;;;;;;;;
2000;[4847] RODRIGUEZ-LOSADA J. A. (2000);samp. RL-1;;CANARY ISLANDS / TENERIFE;PUNTA POYATA MINERALIZATION, TAGANANA AREA, NW OF ANAGA MASSIF;28.5;-16.3;28.5;-16.3;130;130;OUTCROP;;;SUBAERIAL;VOLCANIC ROCK;ANKARAMITE;;;;;;;;EXTENSIVELY ALTERED;HYDROTHERMAL ALTERATION;MINERAL / COMPONENT (INCL. GROUNDMASS);CALCITE;;;;;PRIMARY;;;;;;;;;;;;;;;;;;;;;;;;;;;;;;;;;;;;;;;;;;;;;;;;;;;;;;;;;;;;;;;;;;;;;;;;;;;;;;;;;;;;;;;;;;;;;;;;;;;;;;;;;;;;;;;;;;;;;;;;;;;;;;;;;;;;;;;;;;;;;;;;;;;;;;;;;;;;;;;;;;;;;;;;;;;;;;;;;;;;;;;;;;;;;;;;;;;;;;;;;;;;;;;;;;;;;;;;;;;;;;;;;;;;;;;;;;;;;;;;;;;;;;;;;;;;;;;;;;;;;;;;;;;;;;;;;;;;;;;;;;;;;;;;;;;;5.83;;;24.26;;;;;;;;;;;;;;;;;;;;;;;;;;;;;;;;;
2000;[4847] RODRIGUEZ-LOSADA J. A. (2000);samp. RL-2;;CANARY ISLANDS / TENERIFE;PUNTA POYATA MINERALIZATION, TAGANANA AREA, NW OF ANAGA MASSIF;28.5;-16.3;28.5;-16.3;130;130;OUTCROP;;;SUBAERIAL;VOLCANIC ROCK;ANKARAMITE;;;;;;;;EXTENSIVELY ALTERED;HYDROTHERMAL ALTERATION;MINERAL / COMPONENT (INCL. GROUNDMASS);CALCITE;;;;;PRIMARY;;;;;;;;;;;;;;;;;;;;;;;;;;;;;;;;;;;;;;;;;;;;;;;;;;;;;;;;;;;;;;;;;;;;;;;;;;;;;;;;;;;;;;;;;;;;;;;;;;;;;;;;;;;;;;;;;;;;;;;;;;;;;;;;;;;;;;;;;;;;;;;;;;;;;;;;;;;;;;;;;;;;;;;;;;;;;;;;;;;;;;;;;;;;;;;;;;;;;;;;;;;;;;;;;;;;;;;;;;;;;;;;;;;;;;;;;;;;;;;;;;;;;;;;;;;;;;;;;;;;;;;;;;;;;;;;;;;;;;;;;;;;;;;;;;;;-2.82;;;23.16;;;;;;;;;;;;;;;;;;;;;;;;;;;;;;;;;
2000;[4847] RODRIGUEZ-LOSADA J. A. (2000);samp. RL-3;;CANARY ISLANDS / TENERIFE;PUNTA POYATA MINERALIZATION, TAGANANA AREA, NW OF ANAGA MASSIF;28.5;-16.3;28.5;-16.3;130;130;OUTCROP;;;SUBAERIAL;VOLCANIC ROCK;ANKARAMITE;;;;;;;;EXTENSIVELY ALTERED;HYDROTHERMAL ALTERATION;MINERAL / COMPONENT (INCL. GROUNDMASS);CALCITE;;;;;PRIMARY;;;;;;;;;;;;;;;;;;;;;;;;;;;;;;;;;;;;;;;;;;;;;;;;;;;;;;;;;;;;;;;;;;;;;;;;;;;;;;;;;;;;;;;;;;;;;;;;;;;;;;;;;;;;;;;;;;;;;;;;;;;;;;;;;;;;;;;;;;;;;;;;;;;;;;;;;;;;;;;;;;;;;;;;;;;;;;;;;;;;;;;;;;;;;;;;;;;;;;;;;;;;;;;;;;;;;;;;;;;;;;;;;;;;;;;;;;;;;;;;;;;;;;;;;;;;;;;;;;;;;;;;;;;;;;;;;;;;;;;;;;;;;;;;;;;;-0.33;;;22.63;;;;;;;;;;;;;;;;;;;;;;;;;;;;;;;;;
2000;[4847] RODRIGUEZ-LOSADA J. A. (2000);samp. RL-4;;CANARY ISLANDS / TENERIFE;PUNTA POYATA MINERALIZATION, TAGANANA AREA, NW OF ANAGA MASSIF;28.5;-16.3;28.5;-16.3;130;130;OUTCROP;;;SUBAERIAL;VOLCANIC ROCK;ANKARAMITE;;;;;;;;EXTENSIVELY ALTERED;HYDROTHERMAL ALTERATION;MINERAL / COMPONENT (INCL. GROUNDMASS);CALCITE;;;;;PRIMARY;;;;;;;;;;;;;;;;;;;;;;;;;;;;;;;;;;;;;;;;;;;;;;;;;;;;;;;;;;;;;;;;;;;;;;;;;;;;;;;;;;;;;;;;;;;;;;;;;;;;;;;;;;;;;;;;;;;;;;;;;;;;;;;;;;;;;;;;;;;;;;;;;;;;;;;;;;;;;;;;;;;;;;;;;;;;;;;;;;;;;;;;;;;;;;;;;;;;;;;;;;;;;;;;;;;;;;;;;;;;;;;;;;;;;;;;;;;;;;;;;;;;;;;;;;;;;;;;;;;;;;;;;;;;;;;;;;;;;;;;;;;;;;;;;;;;5.73;;;24.08;;;;;;;;;;;;;;;;;;;;;;;;;;;;;;;;;
2000;[4847] RODRIGUEZ-LOSADA J. A. (2000);samp. RL-5;;CANARY ISLANDS / TENERIFE;PUNTA POYATA MINERALIZATION, TAGANANA AREA, NW OF ANAGA MASSIF;28.5;-16.3;28.5;-16.3;130;130;OUTCROP;;;SUBAERIAL;VOLCANIC ROCK;ANKARAMITE;;;;;;;;EXTENSIVELY ALTERED;HYDROTHERMAL ALTERATION;MINERAL / COMPONENT (INCL. GROUNDMASS);CALCITE;;;;;PRIMARY;;;;;;;;;;;;;;;;;;;;;;;;;;;;;;;;;;;;;;;;;;;;;;;;;;;;;;;;;;;;;;;;;;;;;;;;;;;;;;;;;;;;;;;;;;;;;;;;;;;;;;;;;;;;;;;;;;;;;;;;;;;;;;;;;;;;;;;;;;;;;;;;;;;;;;;;;;;;;;;;;;;;;;;;;;;;;;;;;;;;;;;;;;;;;;;;;;;;;;;;;;;;;;;;;;;;;;;;;;;;;;;;;;;;;;;;;;;;;;;;;;;;;;;;;;;;;;;;;;;;;;;;;;;;;;;;;;;;;;;;;;;;;;;;;;;;1.38;;;23.91;;;;;;;;;;;;;;;;;;;;;;;;;;;;;;;;;
2000;[4847] RODRIGUEZ-LOSADA J. A. (2000);samp. RL-6;;CANARY ISLANDS / TENERIFE;PUNTA POYATA MINERALIZATION, TAGANANA AREA, NW OF ANAGA MASSIF;28.5;-16.3;28.5;-16.3;130;130;OUTCROP;;;SUBAERIAL;VOLCANIC ROCK;ANKARAMITE;;;;;;;;EXTENSIVELY ALTERED;HYDROTHERMAL ALTERATION;MINERAL / COMPONENT (INCL. GROUNDMASS);CALCITE;;;;;PRIMARY;;;;;;;;;;;;;;;;;;;;;;;;;;;;;;;;;;;;;;;;;;;;;;;;;;;;;;;;;;;;;;;;;;;;;;;;;;;;;;;;;;;;;;;;;;;;;;;;;;;;;;;;;;;;;;;;;;;;;;;;;;;;;;;;;;;;;;;;;;;;;;;;;;;;;;;;;;;;;;;;;;;;;;;;;;;;;;;;;;;;;;;;;;;;;;;;;;;;;;;;;;;;;;;;;;;;;;;;;;;;;;;;;;;;;;;;;;;;;;;;;;;;;;;;;;;;;;;;;;;;;;;;;;;;;;;;;;;;;;;;;;;;;;;;;;;;-1.31;;;24.46;;;;;;;;;;;;;;;;;;;;;;;;;;;;;;;;;
2000;[4847] RODRIGUEZ-LOSADA J. A. (2000);samp. RL-7;;CANARY ISLANDS / TENERIFE;PUNTA POYATA MINERALIZATION, TAGANANA AREA, NW OF ANAGA MASSIF;28.5;-16.3;28.5;-16.3;130;130;OUTCROP;;;SUBAERIAL;VOLCANIC ROCK;ANKARAMITE;;;;;;;;EXTENSIVELY ALTERED;HYDROTHERMAL ALTERATION;MINERAL / COMPONENT (INCL. GROUNDMASS);CALCITE;;;;;PRIMARY;;;;;;;;;;;;;;;;;;;;;;;;;;;;;;;;;;;;;;;;;;;;;;;;;;;;;;;;;;;;;;;;;;;;;;;;;;;;;;;;;;;;;;;;;;;;;;;;;;;;;;;;;;;;;;;;;;;;;;;;;;;;;;;;;;;;;;;;;;;;;;;;;;;;;;;;;;;;;;;;;;;;;;;;;;;;;;;;;;;;;;;;;;;;;;;;;;;;;;;;;;;;;;;;;;;;;;;;;;;;;;;;;;;;;;;;;;;;;;;;;;;;;;;;;;;;;;;;;;;;;;;;;;;;;;;;;;;;;;;;;;;;;;;;;;;;2.48;;;23.73;;;;;;;;;;;;;;;;;;;;;;;;;;;;;;;;;
2000;[4847] RODRIGUEZ-LOSADA J. A. (2000);samp. RL-8;;CANARY ISLANDS / TENERIFE;PUNTA POYATA MINERALIZATION, TAGANANA AREA, NW OF ANAGA MASSIF;28.5;-16.3;28.5;-16.3;130;130;OUTCROP;;;SUBAERIAL;VOLCANIC ROCK;ANKARAMITE;;;;;;;;EXTENSIVELY ALTERED;HYDROTHERMAL ALTERATION;MINERAL / COMPONENT (INCL. GROUNDMASS);CALCITE;;;;;PRIMARY;;;;;;;;;;;;;;;;;;;;;;;;;;;;;;;;;;;;;;;;;;;;;;;;;;;;;;;;;;;;;;;;;;;;;;;;;;;;;;;;;;;;;;;;;;;;;;;;;;;;;;;;;;;;;;;;;;;;;;;;;;;;;;;;;;;;;;;;;;;;;;;;;;;;;;;;;;;;;;;;;;;;;;;;;;;;;;;;;;;;;;;;;;;;;;;;;;;;;;;;;;;;;;;;;;;;;;;;;;;;;;;;;;;;;;;;;;;;;;;;;;;;;;;;;;;;;;;;;;;;;;;;;;;;;;;;;;;;;;;;;;;;;;;;;;;;3.92;;;22.62;;;;;;;;;;;;;;;;;;;;;;;;;;;;;;;;;
2000;[4847] RODRIGUEZ-LOSADA J. A. (2000);samp. RL-9;;CANARY ISLANDS / TENERIFE;PUNTA POYATA MINERALIZATION, TAGANANA AREA, NW OF ANAGA MASSIF;28.5;-16.3;28.5;-16.3;130;130;OUTCROP;;;SUBAERIAL;VOLCANIC ROCK;ANKARAMITE;;;;;;;;EXTENSIVELY ALTERED;HYDROTHERMAL ALTERATION;MINERAL / COMPONENT (INCL. GROUNDMASS);CALCITE;;;;;PRIMARY;;;;;;;;;;;;;;;;;;;;;;;;;;;;;;;;;;;;;;;;;;;;;;;;;;;;;;;;;;;;;;;;;;;;;;;;;;;;;;;;;;;;;;;;;;;;;;;;;;;;;;;;;;;;;;;;;;;;;;;;;;;;;;;;;;;;;;;;;;;;;;;;;;;;;;;;;;;;;;;;;;;;;;;;;;;;;;;;;;;;;;;;;;;;;;;;;;;;;;;;;;;;;;;;;;;;;;;;;;;;;;;;;;;;;;;;;;;;;;;;;;;;;;;;;;;;;;;;;;;;;;;;;;;;;;;;;;;;;;;;;;;;;;;;;;;;4.38;;;23.89;;;;;;;;;;;;;;;;;;;;;;;;;;;;;;;;;
2000;[4847] RODRIGUEZ-LOSADA J. A. (2000);samp. RL-10;;CANARY ISLANDS / TENERIFE;PUNTA POYATA MINERALIZATION, TAGANANA AREA, NW OF ANAGA MASSIF;28.5;-16.3;28.5;-16.3;130;130;OUTCROP;;;SUBAERIAL;VOLCANIC ROCK;ANKARAMITE;;;;;;;;EXTENSIVELY ALTERED;HYDROTHERMAL ALTERATION;MINERAL / COMPONENT (INCL. GROUNDMASS);CALCITE;;;;;PRIMARY;;;;;;;;;;;;;;;;;;;;;;;;;;;;;;;;;;;;;;;;;;;;;;;;;;;;;;;;;;;;;;;;;;;;;;;;;;;;;;;;;;;;;;;;;;;;;;;;;;;;;;;;;;;;;;;;;;;;;;;;;;;;;;;;;;;;;;;;;;;;;;;;;;;;;;;;;;;;;;;;;;;;;;;;;;;;;;;;;;;;;;;;;;;;;;;;;;;;;;;;;;;;;;;;;;;;;;;;;;;;;;;;;;;;;;;;;;;;;;;;;;;;;;;;;;;;;;;;;;;;;;;;;;;;;;;;;;;;;;;;;;;;;;;;;;;;2.09;;;23.07;;;;;;;;;;;;;;;;;;;;;;;;;;;;;;;;;
2000;[4847] RODRIGUEZ-LOSADA J. A. (2000);samp. RL-11;;CANARY ISLANDS / TENERIFE;PUNTA POYATA MINERALIZATION, TAGANANA AREA, NW OF ANAGA MASSIF;28.5;-16.3;28.5;-16.3;130;130;OUTCROP;;;SUBAERIAL;VOLCANIC ROCK;ANKARAMITE;;;;;;;;EXTENSIVELY ALTERED;HYDROTHERMAL ALTERATION;MINERAL / COMPONENT (INCL. GROUNDMASS);CALCITE;;;;;PRIMARY;;;;;;;;;;;;;;;;;;;;;;;;;;;;;;;;;;;;;;;;;;;;;;;;;;;;;;;;;;;;;;;;;;;;;;;;;;;;;;;;;;;;;;;;;;;;;;;;;;;;;;;;;;;;;;;;;;;;;;;;;;;;;;;;;;;;;;;;;;;;;;;;;;;;;;;;;;;;;;;;;;;;;;;;;;;;;;;;;;;;;;;;;;;;;;;;;;;;;;;;;;;;;;;;;;;;;;;;;;;;;;;;;;;;;;;;;;;;;;;;;;;;;;;;;;;;;;;;;;;;;;;;;;;;;;;;;;;;;;;;;;;;;;;;;;;;-2.48;;;24.13;;;;;;;;;;;;;;;;;;;;;;;;;;;;;;;;;
2000;[4847] RODRIGUEZ-LOSADA J. A. (2000);samp. F-1-A;;CANARY ISLANDS / TENERIFE;PUNTA POYATA MINERALIZATION, TAGANANA AREA, NW OF ANAGA MASSIF;28.5;-16.3;28.5;-16.3;130;130;OUTCROP;;;SUBAERIAL;VOLCANIC ROCK;ANKARAMITE;;;;;;;;EXTENSIVELY ALTERED;HYDROTHERMAL ALTERATION;MINERAL / COMPONENT (INCL. GROUNDMASS);SIDERITE;;;;;PRIMARY;;;;;;;;;;;;;;;;;;;;;;;;;;;;;;;;;;;;;;;;;;;;;;;;;;;;;;;;;;;;;;;;;;;;;;;;;;;;;;;;;;;;;;;;;;;;;;;;;;;;;;;;;;;;;;;;;;;;;;;;;;;;;;;;;;;;;;;;;;;;;;;;;;;;;;;;;;;;;;;;;;;;;;;;;;;;;;;;;;;;;;;;;;;;;;;;;;;;;;;;;;;;;;;;;;;;;;;;;;;;;;;;;;;;;;;;;;;;;;;;;;;;;;;;;;;;;;;;;;;;;;;;;;;;;;;;;;;;;;;;;;;;;;;;;;;;-0.13;;;25.19;;;;;;;;;;;;;;;;;;;;;;;;;;;;;;;;;
2000;[4847] RODRIGUEZ-LOSADA J. A. (2000);samp. F-1-B;;CANARY ISLANDS / TENERIFE;PUNTA POYATA MINERALIZATION, TAGANANA AREA, NW OF ANAGA MASSIF;28.5;-16.3;28.5;-16.3;130;130;OUTCROP;;;SUBAERIAL;VOLCANIC ROCK;ANKARAMITE;;;;;;;;EXTENSIVELY ALTERED;HYDROTHERMAL ALTERATION;MINERAL / COMPONENT (INCL. GROUNDMASS);SIDERITE;;;;;PRIMARY;;;;;;;;;;;;;;;;;;;;;;;;;;;;;;;;;;;;;;;;;;;;;;;;;;;;;;;;;;;;;;;;;;;;;;;;;;;;;;;;;;;;;;;;;;;;;;;;;;;;;;;;;;;;;;;;;;;;;;;;;;;;;;;;;;;;;;;;;;;;;;;;;;;;;;;;;;;;;;;;;;;;;;;;;;;;;;;;;;;;;;;;;;;;;;;;;;;;;;;;;;;;;;;;;;;;;;;;;;;;;;;;;;;;;;;;;;;;;;;;;;;;;;;;;;;;;;;;;;;;;;;;;;;;;;;;;;;;;;;;;;;;;;;;;;;;-0.22;;;25.21;;;;;;;;;;;;;;;;;;;;;;;;;;;;;;;;;
2000;[4847] RODRIGUEZ-LOSADA J. A. (2000);samp. F-2A-RED;;CANARY ISLANDS / TENERIFE;PUNTA POYATA MINERALIZATION, TAGANANA AREA, NW OF ANAGA MASSIF;28.5;-16.3;28.5;-16.3;130;130;OUTCROP;;;SUBAERIAL;VOLCANIC ROCK;ANKARAMITE;;;;;;;;EXTENSIVELY ALTERED;HYDROTHERMAL ALTERATION;MINERAL / COMPONENT (INCL. GROUNDMASS);SIDERITE;;;;;PRIMARY;;;;;;;;;;;;;;;;;;;;;;;;;;;;;;;;;;;;;;;;;;;;;;;;;;;;;;;;;;;;;;;;;;;;;;;;;;;;;;;;;;;;;;;;;;;;;;;;;;;;;;;;;;;;;;;;;;;;;;;;;;;;;;;;;;;;;;;;;;;;;;;;;;;;;;;;;;;;;;;;;;;;;;;;;;;;;;;;;;;;;;;;;;;;;;;;;;;;;;;;;;;;;;;;;;;;;;;;;;;;;;;;;;;;;;;;;;;;;;;;;;;;;;;;;;;;;;;;;;;;;;;;;;;;;;;;;;;;;;;;;;;;;;;;;;;;3.44;;;27.95;;;;;;;;;;;;;;;;;;;;;;;;;;;;;;;;;
2000;[4847] RODRIGUEZ-LOSADA J. A. (2000);samp. F-1-A;;CANARY ISLANDS / TENERIFE;PUNTA POYATA MINERALIZATION, TAGANANA AREA, NW OF ANAGA MASSIF;28.5;-16.3;28.5;-16.3;130;130;OUTCROP;;;SUBAERIAL;VOLCANIC ROCK;ANKARAMITE;;;;;;;;EXTENSIVELY ALTERED;HYDROTHERMAL ALTERATION;MINERAL / COMPONENT (INCL. GROUNDMASS);QUARTZ;;;;;PRIMARY;;;;;;;;;;;;;;;;;;;;;;;;;;;;;;;;;;;;;;;;;;;;;;;;;;;;;;;;;;;;;;;;;;;;;;;;;;;;;;;;;;;;;;;;;;;;;;;;;;;;;;;;;;;;;;;;;;;;;;;;;;;;;;;;;;;;;;;;;;;;;;;;;;;;;;;;;;;;;;;;;;;;;;;;;;;;;;;;;;;;;;;;;;;;;;;;;;;;;;;;;;;;;;;;;;;;;;;;;;;;;;;;;;;;;;;;;;;;;;;;;;;;;;;;;;;;;;;;;;;;;;;;;;;;;;;;;;;;;;;;;;;;;;;;;;;;;;;26;;;;;;;;;;;;;;;;;;;;;;;;;;;;;;;;;
2000;[4847] RODRIGUEZ-LOSADA J. A. (2000);samp. F-1-B;;CANARY ISLANDS / TENERIFE;PUNTA POYATA MINERALIZATION, TAGANANA AREA, NW OF ANAGA MASSIF;28.5;-16.3;28.5;-16.3;130;130;OUTCROP;;;SUBAERIAL;VOLCANIC ROCK;ANKARAMITE;;;;;;;;EXTENSIVELY ALTERED;HYDROTHERMAL ALTERATION;MINERAL / COMPONENT (INCL. GROUNDMASS);QUARTZ;;;;;PRIMARY;;;;;;;;;;;;;;;;;;;;;;;;;;;;;;;;;;;;;;;;;;;;;;;;;;;;;;;;;;;;;;;;;;;;;;;;;;;;;;;;;;;;;;;;;;;;;;;;;;;;;;;;;;;;;;;;;;;;;;;;;;;;;;;;;;;;;;;;;;;;;;;;;;;;;;;;;;;;;;;;;;;;;;;;;;;;;;;;;;;;;;;;;;;;;;;;;;;;;;;;;;;;;;;;;;;;;;;;;;;;;;;;;;;;;;;;;;;;;;;;;;;;;;;;;;;;;;;;;;;;;;;;;;;;;;;;;;;;;;;;;;;;;;;;;;;;;;;25.5;;;;;;;;;;;;;;;;;;;;;;;;;;;;;;;;;
2000;[4847] RODRIGUEZ-LOSADA J. A. (2000);samp. FO-1;;CANARY ISLANDS / TENERIFE;PUNTA POYATA MINERALIZATION, TAGANANA AREA, NW OF ANAGA MASSIF;28.5;-16.3;28.5;-16.3;130;130;OUTCROP;;;SUBAERIAL;VOLCANIC ROCK;ANKARAMITE;;;;;;;;EXTENSIVELY ALTERED;HYDROTHERMAL ALTERATION;MINERAL / COMPONENT (INCL. GROUNDMASS);MAGNETITE;;;;;PRIMARY;;;;;;;;;;;;;;;;;;;;;;;;;;;;;;;;;;;;;;;;;;;;;;;;;;;;;;;;;;;;;;;;;;;;;;;;;;;;;;;;;;;;;;;;;;;;;;;;;;;;;;;;;;;;;;;;;;;;;;;;;;;;;;;;;;;;;;;;;;;;;;;;;;;;;;;;;;;;;;;;;;;;;;;;;;;;;;;;;;;;;;;;;;;;;;;;;;;;;;;;;;;;;;;;;;;;;;;;;;;;;;;;;;;;;;;;;;;;;;;;;;;;;;;;;;;;;;;;;;;;;;;;;;;;;;;;;;;;;;;;;;;;;;;;;;;;;;;5.88;;;;;;;;;;;;;;;;;;;;;;;;;;;;;;;;;
1999;[4894] BROOKS C. K. (1999);samp. GM20351;54437;NORTH ATLANTIC IGNEOUS PROVINCE (NAIP) / EAST GREENLAND / VANDFALDSDALEN FORMATION;VANDFALDSDALEN, MIKI FJORD AREA, KANGERLUSSUAQ AREA;70;-26;71;-32;;;OUTCROP;;;SUBAERIAL;VOLCANIC ROCK;ANKARAMITE;;;;;;;;;;WHOLE ROCK;;;;;;;;;;;;;;;;;;;;;;;;;;;;;;;;;;;;;;;;;;;;;;;;;;;;;;;;;;;;;;;;;;;;;;;;;;;;;;;;;;;;;;;;;;;;;;;;;;;;;;;;;;;;;;;;;;;;;;;;;;;;;;;;;;;;;;;;;;;;;;;;;;;;;;;;;;;;;;;;;;;;;;;;;;;;;;;;;;;;;;;;;;;;;;;;;;;;;;;;;;;;;;;;;;0.288;TIMS_N_ID;;;;0.082;TIMS_N_ID;;;;;;;;;;;;;;;;;;;;;;;;;;;;;;;;;;;;;;;;;;;;;;;;0.14367;TIMS_N;;;17;TIMS_N;;;;;;;;;;;;;;;;;;;;;;;;;;;;;;;;;;;;;;;;;;;;;;;;;;;;;;;;;;;;;;;;;
1995;[5861] DIEU J. J. (1995);samp. 144-874B-24R-1,12-16;;RALIK SEAMOUNT GROUP / WODEJEBATO GUYOT / SITE 874;HOLE 874B;12.0038;164.9398;12.0038;164.9398;-1386;-1386;DRILL HOLE ;;;SUBAQUATIC;VOLCANIC ROCK;ANKARAMITE;;;;;CRETACEOUS;;;;;MINERAL / COMPONENT (INCL. GROUNDMASS);OLIVINE;;PHENOCRYST;CORE;;PRIMARY;;;;;;;;39.6;0.05;0.04;0.04;;;;;;15.17;0.24;44.77;0.19;;;0.21;;;;;;;;;;;;;;;;;;;;;;;;;;;;;;;;;;;;;;;;;;;;;;;;;;;;;;;;;;;;;;;;;;;;;;;;;;;;;;;;;;;;;;;;;;;;;;;;;;;;;;;;;;;;;;;;;;;;;;;;;;;;;;;;;;;;;;;;;;;;;;;;;;;;;;;;;;;;;;;;;;;;;;;;;;;;;;;;;;;;;;;;;;;;;;;;;;;;;;;;;;;;;;;;;;;;;;;;;;;;;;;;;;;;;;;;;;;;;;;;;;;;;;;;;;;;;;;;;;;;;;;;;;;;;;;;;;;;;;;;;;;;84;;;;;;;;;;;;;;;;;;;;;
1995;[5861] DIEU J. J. (1995);samp. 144-874B-24R-1,12-16;;RALIK SEAMOUNT GROUP / WODEJEBATO GUYOT / SITE 874;HOLE 874B;12.0038;164.9398;12.0038;164.9398;-1386;-1386;DRILL HOLE ;;;SUBAQUATIC;VOLCANIC ROCK;ANKARAMITE;;;;;CRETACEOUS;;;;;MINERAL / COMPONENT (INCL. GROUNDMASS);OLIVINE;;PHENOCRYST;CORE;;PRIMARY;;;;;;;;39.08;0.02;0.03;0.04;;;;;;14.82;0.3;44.8;0.19;;;0.18;;;;;;;;;;;;;;;;;;;;;;;;;;;;;;;;;;;;;;;;;;;;;;;;;;;;;;;;;;;;;;;;;;;;;;;;;;;;;;;;;;;;;;;;;;;;;;;;;;;;;;;;;;;;;;;;;;;;;;;;;;;;;;;;;;;;;;;;;;;;;;;;;;;;;;;;;;;;;;;;;;;;;;;;;;;;;;;;;;;;;;;;;;;;;;;;;;;;;;;;;;;;;;;;;;;;;;;;;;;;;;;;;;;;;;;;;;;;;;;;;;;;;;;;;;;;;;;;;;;;;;;;;;;;;;;;;;;;;;;;;;;;84.3;;;;;;;;;;;;;;;;;;;;;
1995;[5861] DIEU J. J. (1995);samp. 144-874B-24R-1,12-16;;RALIK SEAMOUNT GROUP / WODEJEBATO GUYOT / SITE 874;HOLE 874B;12.0038;164.9398;12.0038;164.9398;-1386;-1386;DRILL HOLE ;;;SUBAQUATIC;VOLCANIC ROCK;ANKARAMITE;;;;;CRETACEOUS;;;;;MINERAL / COMPONENT (INCL. GROUNDMASS);OLIVINE;;PHENOCRYST;;;PRIMARY;;;;;;;;38.64;0;0.04;0.02;;;;;;18;0.31;42.94;0.24;;;0.18;;;;;;;;;;;;;;;;;;;;;;;;;;;;;;;;;;;;;;;;;;;;;;;;;;;;;;;;;;;;;;;;;;;;;;;;;;;;;;;;;;;;;;;;;;;;;;;;;;;;;;;;;;;;;;;;;;;;;;;;;;;;;;;;;;;;;;;;;;;;;;;;;;;;;;;;;;;;;;;;;;;;;;;;;;;;;;;;;;;;;;;;;;;;;;;;;;;;;;;;;;;;;;;;;;;;;;;;;;;;;;;;;;;;;;;;;;;;;;;;;;;;;;;;;;;;;;;;;;;;;;;;;;;;;;;;;;;;;;;;;;;;81;;;;;;;;;;;;;;;;;;;;;