Year;CITATION;SAMPLE NAME;UNIQUE_ID;LOCATION;LOCATION COMMENT;LATITUDE (MIN.);LONGITUDE (MIN.);LATITUDE (MAX.);LONGITUDE (MAX.);ELEVATION (MIN.);ELEVATION (MAX.);SAMPLING TECHNIQUE;DRILLING DEPTH (MIN.);DRILLING DEPTH (MAX.);LAND/SEA (SAMPLING);ROCK TYPE;ROCK NAME;ROCK TEXTURE;SAMPLE COMMENT;AGE (MIN.);AGE (MAX.);GEOLOGICAL AGE;GEOLOGICAL AGE PREFIX;ERUPTION YEAR;ALTERATION;ALTERATION TYPE;TYPE OF MATERIAL;MINERAL / COMPONENT;SPOT (MINERAL);CRYSTAL;RIM / CORE (MINERAL GRAINS);GRAIN SIZE;PRIMARY/SECONDARY;INCLUSION TYPE;SPOT (INCLUSION);MINERAL (INCLUSION);RIM / CORE (INCLUSION);HOSTMINERAL (INCLUSION);HEATING;HEATING TEMPERATURE (?C);SIO2(WT%);TIO2(WT%);AL2O3(WT%);CR2O3(WT%);V2O3(WT%);V2O5(WT%);FE2O3T(WT%);FE2O3(WT%);FEOT(WT%);FEO(WT%);CAO(WT%);MGO(WT%);MNO(WT%);BAO(WT%);SRO(WT%);NIO(WT%);ZNO(WT%);COO(WT%);K2O(WT%);;;;NA2O(WT%);;;;P2O5(WT%);H2O(WT%);H2OP(WT%);H2OM(WT%);CO2(WT%);F(WT%);CL(WT%);CL2(WT%);SO3(WT%);S(WT%);LOI(WT%);O(WT%);SI(WT%);AL(WT%);TI(WT%);FE(WT%);MG(WT%);MN(WT%);CA(WT%);K(WT%): altern. values or methods;;;;NA(WT%);CR(WT%);NI(WT%);HE(CCMSTP/G);HE3(CCMSTP/G);HE4(CCMSTP/G): altern. values or methods;;;;LI(PPM);BE(PPM);B(PPM);F(PPM);NE20(CCMSTP/G);NE22(CCMSTP/G);P(PPM);S(PPM);CL(PPM);AR36(CCMSTP/G);AR40(CCMSTP/G);AR40(MOL/G): altern. values or methods;;;;AR40(PPB);K(PPM);SC(PPM): altern. values or methods;;;;;;TI(PPM);V(PPM): altern. values or methods;;;;CR(PPM): altern. values or methods;;;;MN(PPM);FE(PPM);CO(PPM): altern. values or methods;;;;;;NI(PPM): altern. values or methods;;;;;;CU(PPM): altern. values or methods;;;;ZN(PPM): altern. values or methods;;;;GA(PPM): altern. values or methods;;;;GE(PPM);AS(PPM);KR84(CCMSTP/G);RB(PPM): altern. values or methods;;;;SR(PPM): altern. values or methods;;;;Y(PPM): altern. values or methods;;;;ZR(PPM): altern. values or methods;;;;NB(PPM): altern. values or methods;;;;MO(PPM);RU(PPB);RH(PPB);PD(PPB);IN(PPM);SN(PPM);SB(PPM);XE132(CCMSTP/G);CS(PPM);BA(PPM): altern. values or methods;;;;LA(PPM): altern. values or methods;;;;CE(PPM): altern. values or methods;;;;PR(PPM): altern. values or methods;;;;ND(PPM): altern. values or methods;;;;SM(PPM): altern. values or methods;;;;EU(PPM): altern. values or methods;;;;GD(PPM);TB(PPM): altern. values or methods;;;;DY(PPM);HO(PPM);ER(PPM);TM(PPM);YB(PPM): altern. values or methods;;;;LU(PPM);HF(PPM): altern. values or methods;;;;TA(PPM);W(PPM);RE(PPB): altern. values or methods;;;;RE(PPT);OS(PPB): altern. values or methods;;;;OS(PPT);IR(PPB);PT(PPB);AU(PPB);HG(PPB);TL(PPM);PB(PPM): altern. values or methods;;;;PB210_ACT(DPM/G);TH(PPM): altern. values or methods;;;;TH(PPB);U(PPM): altern. values or methods;;;;U(PPB);CO2(PPM);H2O(PPM);ND143_ND144;ND148_ND144;SM147_ND144;SR87_SR86;RB87_SR86;PB206_PB204: altern. values or methods;;;;PB206_PB207;PB206_PB208;PB207_PB204: altern. values or methods;;;;PB207_PB206;PB208_PB204: altern. values or methods;;;;PB208_PB206;OS187_OS186;OS187_OS188: altern. values or methods;;;;RE187_OS188: altern. values or methods;;;;HF176_HF177;HE3_HE4;HE3_HE4(R/R(A)): altern. values or methods;;;;HE4_HE3: altern. values or methods;;;;;;HE4_HE3(R/R(A)): altern. values or methods;;;;AR38_AR36;AR40_AR36;NE20_NE22;NE21_NE22;XE129_XE132;PB206_U238;PB207_U235;PB210_U238;TH232_U238;U238_PB204;D13C(VS SMOW);D17O(VS VSMOW);D18O(PER MIL);D18O(VS PDB);D18O(VS SMOW);D18O(VS VSMOW);D34S(VS CDT);D44_40CA(VS SRM915A);D56FE(VS IRMM-014);DD(VS SMOW);ALBITE(MOL%);ACMITE(MOL%);ANORTHITE(MOL%);ENSTATITE(MOL%);FAYALITE(MOL%);FORSTERITE(MOL%);FERROSILITE(MOL%);HEMATITE(MOL%);LARNITE(MOL%);ORTHOCLASE(MOL%);PSEUDOBROOKITE(MOL%);TEPHROITE(MOL%);ULVOSPINEL(MOL%);WOLLASTONITE(MOL%);AGE(KA);AGE(MA): altern. values or methods;;;;;;;;AGE_PB207_PB206(MA);AGE_PB207_U235(MA);AGE_PB206_U238(MA);
2000;[6171] MOSSMAN D. J. (2000);samp. 44996;;NEW ZEALAND / SOUTH ISLAND / SOUTHLAND / GREENHILLS COMPLEX;STEEP HEAD;-46.52;168.23;-46.52;168.23;;;OUTCROP;;;SUBAERIAL;VOLCANIC ROCK;ANKARAMITE, HORNBLENDE;;DIKE;;;PERMIAN;;;;;MINERAL / COMPONENT (INCL. GROUNDMASS);AMPHIBOLE;;GROUNDMASS;;;PRIMARY;;;;;;;;46.6;1.38;10.57;0;;;;6.85;;3.74;12.62;15.48;0;;;;;;0.59;EMP (EPMA);;;0;EMP (EPMA);;;;;;;;;;;;;;;;;;;;;;;;;;;;;;;;;;;;;;;;;;;;;;;;;;;;;;;;;;;;;;;;;;;;;;;;;;;;;;;;;;;;;;;;;;;;;;;;;;;;;;;;;;;;;;;;;;;;;;;;;;;;;;;;;;;;;;;;;;;;;;;;;;;;;;;;;;;;;;;;;;;;;;;;;;;;;;;;;;;;;;;;;;;;;;;;;;;;;;;;;;;;;;;;;;;;;;;;;;;;;;;;;;;;;;;;;;;;;;;;;;;;;;;;;;;;;;;;;;;;;;;;;;;;;;;;;;;;;;;;;;;;;;;;;;;;;;;;;
2000;[6171] MOSSMAN D. J. (2000);samp. 44996;;NEW ZEALAND / SOUTH ISLAND / SOUTHLAND / GREENHILLS COMPLEX;STEEP HEAD;-46.52;168.23;-46.52;168.23;;;OUTCROP;;;SUBAERIAL;VOLCANIC ROCK;ANKARAMITE, HORNBLENDE;;DIKE;;;PERMIAN;;;;;MINERAL / COMPONENT (INCL. GROUNDMASS);AMPHIBOLE;;GROUNDMASS;;;PRIMARY;;;;;;;;51.41;0;8.05;0;;;;4.76;;4.19;12.64;16.81;0;;;;;;0.12;EMP (EPMA);;;0;EMP (EPMA);;;;;;;;;;;;;;;;;;;;;;;;;;;;;;;;;;;;;;;;;;;;;;;;;;;;;;;;;;;;;;;;;;;;;;;;;;;;;;;;;;;;;;;;;;;;;;;;;;;;;;;;;;;;;;;;;;;;;;;;;;;;;;;;;;;;;;;;;;;;;;;;;;;;;;;;;;;;;;;;;;;;;;;;;;;;;;;;;;;;;;;;;;;;;;;;;;;;;;;;;;;;;;;;;;;;;;;;;;;;;;;;;;;;;;;;;;;;;;;;;;;;;;;;;;;;;;;;;;;;;;;;;;;;;;;;;;;;;;;;;;;;;;;;;;;;;;;;;
2000;[6171] MOSSMAN D. J. (2000);samp. 44996;;NEW ZEALAND / SOUTH ISLAND / SOUTHLAND / GREENHILLS COMPLEX;STEEP HEAD;-46.52;168.23;-46.52;168.23;;;OUTCROP;;;SUBAERIAL;VOLCANIC ROCK;ANKARAMITE, HORNBLENDE;;DIKE;;;PERMIAN;;;;;MINERAL / COMPONENT (INCL. GROUNDMASS);AMPHIBOLE;;GROUNDMASS;;;PRIMARY;;;;;;;;53.56;0;6.25;0;;;;4.12;;3.84;12.61;18.02;0;;;;;;0.12;EMP (EPMA);;;0;EMP (EPMA);;;;;;;;;;;;;;;;;;;;;;;;;;;;;;;;;;;;;;;;;;;;;;;;;;;;;;;;;;;;;;;;;;;;;;;;;;;;;;;;;;;;;;;;;;;;;;;;;;;;;;;;;;;;;;;;;;;;;;;;;;;;;;;;;;;;;;;;;;;;;;;;;;;;;;;;;;;;;;;;;;;;;;;;;;;;;;;;;;;;;;;;;;;;;;;;;;;;;;;;;;;;;;;;;;;;;;;;;;;;;;;;;;;;;;;;;;;;;;;;;;;;;;;;;;;;;;;;;;;;;;;;;;;;;;;;;;;;;;;;;;;;;;;;;;;;;;;;;
2000;[6171] MOSSMAN D. J. (2000);samp. 44991;;NEW ZEALAND / SOUTH ISLAND / SOUTHLAND / GREENHILLS COMPLEX;STEEP HEAD;-46.52;168.23;-46.52;168.23;;;OUTCROP;;;SUBAERIAL;VOLCANIC ROCK;ANKARAMITE, HORNBLENDE;;DIKE;;;PERMIAN;;;;;MINERAL / COMPONENT (INCL. GROUNDMASS);CHROMITE;;GROUNDMASS;;;PRIMARY;;;;;;;;0.95;0.59;17.58;36.88;;;;10.79;;29.34;0;4.86;0;;;0;;;;;;;;;;;;;;;;;;;;;;;;;;;;;;;;;;;;;;;;;;;;;;;;;;;;;;;;;;;;;;;;;;;;;;;;;;;;;;;;;;;;;;;;;;;;;;;;;;;;;;;;;;;;;;;;;;;;;;;;;;;;;;;;;;;;;;;;;;;;;;;;;;;;;;;;;;;;;;;;;;;;;;;;;;;;;;;;;;;;;;;;;;;;;;;;;;;;;;;;;;;;;;;;;;;;;;;;;;;;;;;;;;;;;;;;;;;;;;;;;;;;;;;;;;;;;;;;;;;;;;;;;;;;;;;;;;;;;;;;;;;;;;;;;;;;;;;;;;;;;;;;;
2000;[6171] MOSSMAN D. J. (2000);samp. 30999;;NEW ZEALAND / SOUTH ISLAND / SOUTHLAND / GREENHILLS COMPLEX;STEEP HEAD;-46.52;168.23;-46.52;168.23;;;OUTCROP;;;SUBAERIAL;VOLCANIC ROCK;ANKARAMITE, HORNBLENDE;;DIKE;;;PERMIAN;;;;;MINERAL / COMPONENT (INCL. GROUNDMASS);MAGNETITE;;GROUNDMASS;;;PRIMARY;;;;;;;;0.13;2.11;2.62;7.39;1.39;;;52.57;;31.99;0.25;0.59;0.22;;;0.19;;;;;;;;;;;;;;;;;;;;;;;;;;;;;;;;;;;;;;;;;;;;;;;;;;;;;;;;;;;;;;;;;;;;;;;;;;;;;;;;;;;;;;;;;;;;;;;;;;;;;;;;;;;;;;;;;;;;;;;;;;;;;;;;;;;;;;;;;;;;;;;;;;;;;;;;;;;;;;;;;;;;;;;;;;;;;;;;;;;;;;;;;;;;;;;;;;;;;;;;;;;;;;;;;;;;;;;;;;;;;;;;;;;;;;;;;;;;;;;;;;;;;;;;;;;;;;;;;;;;;;;;;;;;;;;;;;;;;;;;;;;;;;;;;;;;;;;;;;;;;;;;;
2000;[6171] MOSSMAN D. J. (2000);samp. 30999;;NEW ZEALAND / SOUTH ISLAND / SOUTHLAND / GREENHILLS COMPLEX;STEEP HEAD;-46.52;168.23;-46.52;168.23;;;OUTCROP;;;SUBAERIAL;VOLCANIC ROCK;ANKARAMITE, HORNBLENDE;;DIKE;;;PERMIAN;;;;;MINERAL / COMPONENT (INCL. GROUNDMASS);MAGNETITE;;GROUNDMASS;;;PRIMARY;;;;;;;;0.16;4.31;2.05;6.67;0.8;;;50.07;;33.54;0.27;0.72;0.31;;;0.17;;;;;;;;;;;;;;;;;;;;;;;;;;;;;;;;;;;;;;;;;;;;;;;;;;;;;;;;;;;;;;;;;;;;;;;;;;;;;;;;;;;;;;;;;;;;;;;;;;;;;;;;;;;;;;;;;;;;;;;;;;;;;;;;;;;;;;;;;;;;;;;;;;;;;;;;;;;;;;;;;;;;;;;;;;;;;;;;;;;;;;;;;;;;;;;;;;;;;;;;;;;;;;;;;;;;;;;;;;;;;;;;;;;;;;;;;;;;;;;;;;;;;;;;;;;;;;;;;;;;;;;;;;;;;;;;;;;;;;;;;;;;;;;;;;;;;;;;;;;;;;;;;
2000;[6171] MOSSMAN D. J. (2000);samp. 44996;;NEW ZEALAND / SOUTH ISLAND / SOUTHLAND / GREENHILLS COMPLEX;STEEP HEAD;-46.52;168.23;-46.52;168.23;;;OUTCROP;;;SUBAERIAL;VOLCANIC ROCK;ANKARAMITE, HORNBLENDE;;DIKE;;;PERMIAN;;;;;MINERAL / COMPONENT (INCL. GROUNDMASS);MAGNETITE;;GROUNDMASS;;;PRIMARY;;;;;;;;;0.89;1.69;6.73;;;;58.58;;31.19;0;0.51;0.08;;;0.16;;;;;;;;;;;;;;;;;;;;;;;;;;;;;;;;;;;;;;;;;;;;;;;;;;;;;;;;;;;;;;;;;;;;;;;;;;;;;;;;;;;;;;;;;;;;;;;;;;;;;;;;;;;;;;;;;;;;;;;;;;;;;;;;;;;;;;;;;;;;;;;;;;;;;;;;;;;;;;;;;;;;;;;;;;;;;;;;;;;;;;;;;;;;;;;;;;;;;;;;;;;;;;;;;;;;;;;;;;;;;;;;;;;;;;;;;;;;;;;;;;;;;;;;;;;;;;;;;;;;;;;;;;;;;;;;;;;;;;;;;;;;;;;;;;;;;;;;;;;;;;;;;
2000;[6171] MOSSMAN D. J. (2000);samp. 30999;;NEW ZEALAND / SOUTH ISLAND / SOUTHLAND / GREENHILLS COMPLEX;STEEP HEAD;-46.52;168.23;-46.52;168.23;;;OUTCROP;;;SUBAERIAL;VOLCANIC ROCK;ANKARAMITE, HORNBLENDE;;DIKE;;;PERMIAN;;;;;MINERAL / COMPONENT (INCL. GROUNDMASS);MAGNETITE;;GROUNDMASS;;;PRIMARY;;;;;;;;0.07;2.39;1.74;0.29;0.92;;;61.39;;32.6;0.13;0.48;0.1;;;0.18;;;;;;;;;;;;;;;;;;;;;;;;;;;;;;;;;;;;;;;;;;;;;;;;;;;;;;;;;;;;;;;;;;;;;;;;;;;;;;;;;;;;;;;;;;;;;;;;;;;;;;;;;;;;;;;;;;;;;;;;;;;;;;;;;;;;;;;;;;;;;;;;;;;;;;;;;;;;;;;;;;;;;;;;;;;;;;;;;;;;;;;;;;;;;;;;;;;;;;;;;;;;;;;;;;;;;;;;;;;;;;;;;;;;;;;;;;;;;;;;;;;;;;;;;;;;;;;;;;;;;;;;;;;;;;;;;;;;;;;;;;;;;;;;;;;;;;;;;;;;;;;;;
2000;[6171] MOSSMAN D. J. (2000);samp. 30999;;NEW ZEALAND / SOUTH ISLAND / SOUTHLAND / GREENHILLS COMPLEX;STEEP HEAD;-46.52;168.23;-46.52;168.23;;;OUTCROP;;;SUBAERIAL;VOLCANIC ROCK;ANKARAMITE, HORNBLENDE;;DIKE;;;PERMIAN;;;;;MINERAL / COMPONENT (INCL. GROUNDMASS);ILMENITE;;GROUNDMASS;;;PRIMARY;;;;;;;;0.16;48.2;0.03;0;1.74;;;9.14;;35.8;0.11;3.69;1.04;;;0;;;;;;;;;;;;;;;;;;;;;;;;;;;;;;;;;;;;;;;;;;;;;;;;;;;;;;;;;;;;;;;;;;;;;;;;;;;;;;;;;;;;;;;;;;;;;;;;;;;;;;;;;;;;;;;;;;;;;;;;;;;;;;;;;;;;;;;;;;;;;;;;;;;;;;;;;;;;;;;;;;;;;;;;;;;;;;;;;;;;;;;;;;;;;;;;;;;;;;;;;;;;;;;;;;;;;;;;;;;;;;;;;;;;;;;;;;;;;;;;;;;;;;;;;;;;;;;;;;;;;;;;;;;;;;;;;;;;;;;;;;;;;;;;;;;;;;;;;;;;;;;;;
2000;[6171] MOSSMAN D. J. (2000);samp. 25857/25853 CENTRE;;NEW ZEALAND / SOUTH ISLAND / SOUTHLAND / GREENHILLS COMPLEX;;-46.52;168.23;-46.55;168.25;;;OUTCROP;;;SUBAERIAL;VOLCANIC ROCK;ANKARAMITE, HORNBLENDE;;DIKE CENTER;;;PERMIAN;;;;;WHOLE ROCK;;;;;;;;;;;;;;43.84;0.22;5.21;;;;10.04;;;;7.58;26.79;0.18;;;;;;0.14;XRF;;;0.53;XRF;;;0.03;;;;;;;;;;4.64;;;;;;;;;;;;;;;;;;;;;;;;;;;;;;;;;;;;;;;;;;;;;;140;XRF;;;1725;XRF;;;;;;;;;;;516;XRF;;;;;7;XRF;;;63;XRF;;;6;XRF;;;;;;1.04;XRF;;;44;XRF;;;4;XRF;;;20;XRF;;;0.41;XRF;;;;;;;;;;;;31;XRF;;;1.21;XRF;;;2.76;XRF;;;0.45;XRF;;;2.21;XRF;;;0.82;XRF;;;0.31;XRF;;;1.05;0.19;XRF;;;1.28;0.28;0.89;0.13;0.83;XRF;;;0.13;0.45;XRF;;;0.04;;;;;;;;;;;;;;;;;4;XRF;;;;0.35;XRF;;;;0;XRF;;;;;;;;;;;;;;;;;;;;;;;;;;;;;;;;;;;;;;;;;;;;;;;;;;;;;;;;;;;;;;;;;;;;;;;;;;;;;;;;;;;;;;;;;;;;;;;;;;
2000;[6171] MOSSMAN D. J. (2000);samp. 25857/25853 MARGIN;;NEW ZEALAND / SOUTH ISLAND / SOUTHLAND / GREENHILLS COMPLEX;;-46.52;168.23;-46.55;168.25;;;OUTCROP;;;SUBAERIAL;VOLCANIC ROCK;ANKARAMITE, HORNBLENDE;;DIKE MARGIN;;;PERMIAN;;;;;WHOLE ROCK;;;;;;;;;;;;;;47.69;0.37;8.95;;;;9.4;;;;12.56;16.98;0.15;;;;;;0.32;XRF;;;1.05;XRF;;;0.04;;;;;;;;;;0.99;;;;;;;;;;;;;;;;;;;;;;;;;;;;;;;;;;;;;;;;;;;;;;222;XRF;;;1505;XRF;;;;;;;;;;;231;XRF;;;;;16;XRF;;;54;XRF;;;9;XRF;;;;;;1.02;XRF;;;99;XRF;;;8;XRF;;;25;XRF;;;0.62;XRF;;;;;;;;;;;;43;XRF;;;1.3;XRF;;;3.202;XRF;;;0.5;XRF;;;2.73;XRF;;;1.03;XRF;;;0.34;XRF;;;1.28;0.23;XRF;;;1.37;0.33;1.01;0.15;1.04;XRF;;;0.15;0.57;XRF;;;0.05;;;;;;;;;;;;;;;;;4;XRF;;;;0.3;XRF;;;;1;XRF;;;;;;;;;;;;;;;;;;;;;;;;;;;;;;;;;;;;;;;;;;;;;;;;;;;;;;;;;;;;;;;;;;;;;;;;;;;;;;;;;;;;;;;;;;;;;;;;;;
2000;[6171] MOSSMAN D. J. (2000);samp. 44991 INTERIOR;;NEW ZEALAND / SOUTH ISLAND / SOUTHLAND / GREENHILLS COMPLEX;;-46.52;168.23;-46.55;168.25;;;OUTCROP;;;SUBAERIAL;VOLCANIC ROCK;ANKARAMITE, HORNBLENDE;;DIKE;;;PERMIAN;;;;;WHOLE ROCK;;;;;;;;;;;;;;45.93;0.27;5.83;;;;10.89;;;;9.29;25.67;0.19;;;;;;0.1;XRF;;;0.61;XRF;;;0.03;;;;;;;;;;0.58;;;;;;;;;;;;;;;;;;;;;;;;;;;;;;;;;;;;;;;;;;;;;;158;XRF;;;1526;XRF;;;;;;;;;;;626;XRF;;;;;28;XRF;;;59;XRF;;;7;XRF;;;;;;1;XRF;;;70;XRF;;;6;XRF;;;24;XRF;;;;;;;;;;;;;;;;23;XRF;;;5;XRF;;;0;XRF;;;;;;;;;;;;;;;;;;;;;;;;;;;;;;;;;;;;;;;;;;;;;;;;;;;;;;2;XRF;;;;0;XRF;;;;1;XRF;;;;;;;;;;;;;;;;;;;;;;;;;;;;;;;;;;;;;;;;;;;;;;;;;;;;;;;;;;;;;;;;;;;;;;;;;;;;;;;;;;;;;;;;;;;;;;;;;;
2000;[6171] MOSSMAN D. J. (2000);samp. 30999 INTERIOR;;NEW ZEALAND / SOUTH ISLAND / SOUTHLAND / GREENHILLS COMPLEX;;-46.52;168.23;-46.55;168.25;;;OUTCROP;;;SUBAERIAL;VOLCANIC ROCK;ANKARAMITE;;DIKE;;;PERMIAN;;;;;WHOLE ROCK;;;;;;;;;;;;;;46.2;0.3;6.7;;;;10.71;;;;9.77;23.89;0.19;;;;;;0.15;XRF;;;0.77;XRF;;;0.03;;;;;;;;;;0.75;;;;;;;;;;;;;;;;;;;;;;;;;;;;;;;;;;;;;;;;;;;;;;171;XRF;;;1531;XRF;;;;;;;;;;;566;XRF;;;;;54;XRF;;;61;XRF;;;8;XRF;;;;;;2;XRF;;;81;XRF;;;7;XRF;;;25;XRF;;;;;;;;;;;;;;;;40;XRF;;;2;XRF;;;2.33;XRF;;;;;;;1.77;XRF;;;0.7;XRF;;;0.29;XRF;;;0;0.19;XRF;;;;;;;0.78;XRF;;;0.14;0.49;XRF;;;0.1;;;;;;;;;;;;;;;;;3;XRF;;;;0.15;XRF;;;;1;XRF;;;;;;;;;;;;;;;;;;;;;;;;;;;;;;;;;;;;;;;;;;;;;;;;;;;;;;;;;;;;;;;;;;;;;;;;;;;;;;;;;;;;;;;;;;;;;;;;;;
2000;[6171] MOSSMAN D. J. (2000);samp. 44996 INTERIOR;;NEW ZEALAND / SOUTH ISLAND / SOUTHLAND / GREENHILLS COMPLEX;;-46.52;168.23;-46.55;168.25;;;OUTCROP;;;SUBAERIAL;VOLCANIC ROCK;ANKARAMITE, HORNBLENDE;;DIKE;;;PERMIAN;;;;;WHOLE ROCK;;;;;;;;;;;;;;48.03;0.4;9.6;;;;10.72;;;;12.18;16.84;0.19;;;;;;0.2;XRF;;;0.95;XRF;;;0.04;;;;;;;;;;0.49;;;;;;;;;;;;;;;;;;;;;;;;;;;;;;;;;;;;;;;;;;;;;;231;XRF;;;1012;XRF;;;;;;;;;;;293;XRF;;;;;67;XRF;;;62;XRF;;;10;XRF;;;;;;2;XRF;;;152;XRF;;;9;XRF;;;27;XRF;;;;;;;;;;;;;;;;39;XRF;;;4;XRF;;;3;XRF;;;;;;;5;XRF;;;;;;;;;;;;;;;;;;;;;;;;;;;;;;;;;;;;;;;;;;;;;;6;XRF;;;;0;XRF;;;;1;XRF;;;;;;;;;;;;;;;;;;;;;;;;;;;;;;;;;;;;;;;;;;;;;;;;;;;;;;;;;;;;;;;;;;;;;;;;;;;;;;;;;;;;;;;;;;;;;;;;;;
2000;[6171] MOSSMAN D. J. (2000);samp. 54982 INTERIOR;;NEW ZEALAND / SOUTH ISLAND / SOUTHLAND / GREENHILLS COMPLEX;;-46.52;168.23;-46.55;168.25;;;OUTCROP;;;SUBAERIAL;VOLCANIC ROCK;ANKARAMITE, HORNBLENDE;;DIKE;;;PERMIAN;;;;;WHOLE ROCK;;;;;;;;;;;;;;47.93;0.45;11.48;;;;11.55;;;;13.33;13.97;0.21;;;;;;0.04;XRF;;;0.76;XRF;;;0.02;;;;;;;;;;0.21;;;;;;;;;;;;;;;;;;;;;;;;;;;;;;;;;;;;;;;;;;;;;;273;XRF;;;683;XRF;;;;;;;;;;;184;XRF;;;;;72;XRF;;;67;XRF;;;12;XRF;;;;;;0;XRF;;;155;XRF;;;10;XRF;;;19;XRF;;;;;;;;;;;;;;;;20;XRF;;;0;XRF;;;4;XRF;;;;;;;5;XRF;;;;;;;;;;;;;;;;;;;;;;;;;;;;;;;;;;;;;;;;;;;;;;4;XRF;;;;0;XRF;;;;1;XRF;;;;;;;;;;;;;;;;;;;;;;;;;;;;;;;;;;;;;;;;;;;;;;;;;;;;;;;;;;;;;;;;;;;;;;;;;;;;;;;;;;;;;;;;;;;;;;;;;;
2000;[6171] MOSSMAN D. J. (2000);samp. 54981/54981A CENTRE;;NEW ZEALAND / SOUTH ISLAND / SOUTHLAND / GREENHILLS COMPLEX;;-46.52;168.23;-46.55;168.25;;;OUTCROP;;;SUBAERIAL;VOLCANIC ROCK;ANKARAMITE, HORNBLENDE;;DIKE CENTER;;;PERMIAN;;;;;WHOLE ROCK;;;;;;;;;;;;;;46.73;0.63;14.27;;;;11.24;;;;15.1;10.56;0.18;;;;;;0.03;XRF;;;0.88;XRF;;;0.02;;;;;;;;;;0.35;;;;;;;;;;;;;;;;;;;;;;;;;;;;;;;;;;;;;;;;;;;;;;366;XRF;;;189;XRF;;;;;;;;;;;83;XRF;;;;;231;XRF;;;59;XRF;;;14;XRF;;;;;;0;XRF;;;200;XRF;;;10;XRF;;;19;XRF;;;;;;;;;;;;;;;;11;XRF;;;3;XRF;;;4;XRF;;;;;;;3;XRF;;;;;;;;;;;;;;;;;;;;;;;;;;;;;;;;;;;;;;;;;;;;;;3;XRF;;;;0;XRF;;;;2;XRF;;;;;;;;;;;;;;;;;;;;;;;;;;;;;;;;;;;;;;;;;;;;;;;;;;;;;;;;;;;;;;;;;;;;;;;;;;;;;;;;;;;;;;;;;;;;;;;;;;
2000;[6171] MOSSMAN D. J. (2000);samp. 54981/54981A MARGIN;;NEW ZEALAND / SOUTH ISLAND / SOUTHLAND / GREENHILLS COMPLEX;;-46.52;168.23;-46.55;168.25;;;OUTCROP;;;SUBAERIAL;VOLCANIC ROCK;ANKARAMITE, HORNBLENDE;;DIKE MARGIN;;;PERMIAN;;;;;WHOLE ROCK;;;;;;;;;;;;;;;;;;;;;;;;;;;;;;;;;;;;;;;;;;;;;;;;;;0.51;;;;;;;;;;;;;;;;;;;;;;;;;;;;;;;;;;;;;;;;;;;;;;;;;;;;;;;;;;;;;;;;;;;;;;;;;;;;;;;;;;;;;;;;;;;;;;;;;;;;;;;;;;;;;;;;;;;;;;;;;;;;;;;;;;;;;;;;;;;;;;;;;;;;;;;;;;;;;;;;;;;;;;;;;;;;;;;;;;;;;;;;;;;;;;;;;;;;;;;;;;;;;;;;;;;;;;;;;;;;;;;;;;;;;;;;;;;;;;;;;;;;;;;;;;;;;;;;;;;;;;;;;;;;;;;;;;;;;;;;;;;;
1986;[6481] BRIGGS R. M. (1986);samp. T4B;103868;NEW ZEALAND / NORTH ISLAND / ALEXANDRA FIELD / TE KAWA;TE KAWA QUARRY;-37.7;174.7;-38.3;175.5;;;OUTCROP;;;SUBAERIAL;VOLCANIC ROCK;ANKARAMITE;;;;;MIOCENE;;;;;WHOLE ROCK;;;;;;;;;;;;;;45.98;1.07;13.82;;;;;6.85;;4.38;12.41;11.6;0.18;;;;;;0.57;XRF;;;1.66;XRF;;;0.12;;;;;;;;;;1.17;;;;;;;;;;;;;;;;;;;;;;;;;;;;;;;;;;;;;;;;;;;;;;392;XRF;;;504;XRF;;;;;;;;;;;203;XRF;;;;;106;XRF;;;60;XRF;;;;;;;;;;12;XRF;;;322;XRF;;;;;;;38;XRF;;;1;XRF;;;;;;;;;;;;240;XRF;;;;;;;;;;;;;;;;;;;;;;;;;;;;;;;;;;;;;;;;;;;;;;;;;;;;;;;;;;;;;;;;;;;;;;;;;;;;;;;;;;;;;;;;;;;;;;;;;;;;;;;;;;;;;;;;;;;;;;;;;;;;;;;;;;;;;;;;;;;;;;;;;;;;;;;;;;;;;;;;;;;;;;;;;;;
1986;[6703] GAMBLE J. A. (1986);samp. VUW30175;;NEW ZEALAND / SOUTH ISLAND / AUCKLAND ISLANDS;;-50.83;166;-50.83;166;;;OUTCROP;;;SUBAERIAL;VOLCANIC ROCK;ANKARAMITE;;;;;;;;;;MINERAL / COMPONENT (INCL. GROUNDMASS);CLINOPYROXENE;;PHENOCRYST;CORE;;PRIMARY;;;;;;;;52.68;0.11;2.4;1.28;;;;2.3;;2.56;21.22;17.61;0.06;;;;;;;;;;0.41;EMP (EPMA);;;;;;;;;;;;;;;;;;;;;;;;;;;;;;;;;;;;;;;;;;;;;;;;;;;;;;;;;;;;;;;;;;;;;;;;;;;;;;;;;;;;;;;;;;;;;;;;;;;;;;;;;;;;;;;;;;;;;;;;;;;;;;;;;;;;;;;;;;;;;;;;;;;;;;;;;;;;;;;;;;;;;;;;;;;;;;;;;;;;;;;;;;;;;;;;;;;;;;;;;;;;;;;;;;;;;;;;;;;;;;;;;;;;;;;;;;;;;;;;;;;;;;;;;;;;;;;;;;;;;;;;;;;;;;;;;;;;;;;;;;;;;;;;;;;;;;;;;
1986;[6703] GAMBLE J. A. (1986);samp. VUW30175;;NEW ZEALAND / SOUTH ISLAND / AUCKLAND ISLANDS;;-50.83;166;-50.83;166;;;OUTCROP;;;SUBAERIAL;VOLCANIC ROCK;ANKARAMITE;;;;;;;;;;MINERAL / COMPONENT (INCL. GROUNDMASS);CLINOPYROXENE;;GROUNDMASS;;;PRIMARY;;;;;;;;50.32;1.22;2.81;0.44;;;;4.15;;4.35;21.56;15.75;0.19;;;;;;;;;;0.22;EMP (EPMA);;;;;;;;;;;;;;;;;;;;;;;;;;;;;;;;;;;;;;;;;;;;;;;;;;;;;;;;;;;;;;;;;;;;;;;;;;;;;;;;;;;;;;;;;;;;;;;;;;;;;;;;;;;;;;;;;;;;;;;;;;;;;;;;;;;;;;;;;;;;;;;;;;;;;;;;;;;;;;;;;;;;;;;;;;;;;;;;;;;;;;;;;;;;;;;;;;;;;;;;;;;;;;;;;;;;;;;;;;;;;;;;;;;;;;;;;;;;;;;;;;;;;;;;;;;;;;;;;;;;;;;;;;;;;;;;;;;;;;;;;;;;;;;;;;;;;;;;;
1990;[6799] BRIGGS R. M. (1990);samp. P35;;NEW ZEALAND / NORTH ISLAND / ALEXANDRA FIELD / PIRONGIA;TRACK 12, NW PIRONGIA;-37.7;174.7;-38.3;175.5;;;OUTCROP;;;SUBAERIAL;VOLCANIC ROCK;ANKARAMITE;;;;;;;;;;WHOLE ROCK;;;;;;;;;;;;;;45.88;0.76;12.45;;;;;3.37;;7.61;12.32;11.46;0.27;;;;;;0.79;XRF;;;1.59;XRF;;;0.21;;;;;;;;;;2.66;;;;;;;;;;;;;;;;;;;;;;;;;;;;;;;;;;;;;;;40;INAA;;;;;;279;XRF;;;735;XRF;;;;;88;INAA;;;;;184;XRF;;;;;130;XRF;;;92;XRF;;;;;;;;;;22;XRF;;;392;XRF;;;21;XRF;;;69.4;XRF;;;2.52;XRF;;;;;;;;;;;;423;XRF;;;13.5;INAA;;;29.6;INAA;;;3.64;INAA;;;14.6;INAA;;;2.99;INAA;;;1.05;INAA;;;2.95;0.44;INAA;;;2.33;0.46;1.27;;1.63;INAA;;;0.26;1.74;INAA;;;;;;;;;;;;;;;;;;;;4.62;XRF;;;;3.59;INAA;;;;0.75;XRF;;;;;;0.511916;;;0.70482;;18.844;MS;;;;;15.614;MS;;;;38.717;MS;;;;;;;;;;;;;;;;;;;;;;;;;;;;;;;;;;;;;;;;;;;;;;;;;;;;;;;;;;;;;;;;;;;;;;;;;;;
1990;[6799] BRIGGS R. M. (1990);samp. U15;;NEW ZEALAND / NORTH ISLAND / ALEXANDRA FIELD / KAKEPUKU;KAKEPUKU QUARRY;-37.7;174.7;-38.3;175.5;;;OUTCROP;;;SUBAERIAL;VOLCANIC ROCK;ANKARAMITE;;;;;;;;;;WHOLE ROCK;;;;;;;;;;;;;;49.23;0.94;13.76;;;;;3.39;;6.72;12.33;9.77;0.2;;;;;;0.66;XRF;;;2.14;XRF;;;0.2;;;;;;;;;;0.93;;;;;;;;;;;;;;;;;;;;;;;;;;;;;;;;;;;;;;;52;INAA;;;;;;303;XRF;;;352;XRF;;;;;73;INAA;;;;;97;XRF;;;;;27;XRF;;;56;XRF;;;;;;;;;;15;XRF;;;350;XRF;;;27;XRF;;;53;XRF;;;2;XRF;;;;;;;;;;;;282;XRF;;;9.2;INAA;;;18;INAA;;;;;;;;;;;3.25;INAA;;;0.92;INAA;;;;0.54;INAA;;;;;;;1.99;INAA;;;0.35;1.7;INAA;;;;;;;;;;;;;;;;;;;;7;XRF;;;;1.9;INAA;;;;;;;;;;;0.512022;;;0.70424;;;;;;;;;;;;;;;;;;;;;;;;;;;;;;;;;;;;;;;;;;;;;;;;;;;;;;;;;;;;;;;;;;;;;;;;;;;;;;;;;;;;;;;;;
1990;[6799] BRIGGS R. M. (1990);samp. T4B;103868;NEW ZEALAND / NORTH ISLAND / ALEXANDRA FIELD / TE KAWA;TE KAWA QUARRY;-37.7;174.7;-38.3;175.5;;;OUTCROP;;;SUBAERIAL;VOLCANIC ROCK;ANKARAMITE;;;;;;;;;;WHOLE ROCK;;;;;;;;;;;;;;45.98;1.07;13.82;;;;;6.85;;4.38;12.41;11.6;0.18;;;;;;0.57;XRF;;;1.66;XRF;;;0.12;;;;;;;;;;1.17;;;;;;;;;;;;;;;;;;;;;;;;;;;;;;;;;;;;;;;62;INAA;;;;;;392;XRF;;;504;XRF;;;;;88;INAA;;;;;203;XRF;;;;;106;XRF;;;60;XRF;;;;;;;;;;12;XRF;;;322;XRF;;;22;XRF;;;38;XRF;;;1;XRF;;;;;;;;;;;;240;XRF;;;6.8;INAA;;;16;INAA;;;;;;;;;;;2.7;INAA;;;0.78;INAA;;;;0.5;INAA;;;;;;;1.74;INAA;;;0.27;1.3;INAA;;;;;;;;;;;;;;;;;;;;9;XRF;;;;1.5;INAA;;;;;;;;;;;0.512017;;;0.70438;;18.842;MS;;;;;15.609;MS;;;;38.701;MS;;;;;;;;;;;;;;;;;;;;;;;;;;;;;;;;;;;;;;;;;;;;;;;;;;;;;;;;;;;;;;;;;;;;;;;;;;;