Year;CITATION;SAMPLE NAME;UNIQUE_ID;LOCATION;LOCATION COMMENT;LATITUDE (MIN.);LONGITUDE (MIN.);LATITUDE (MAX.);LONGITUDE (MAX.);ELEVATION (MIN.);ELEVATION (MAX.);SAMPLING TECHNIQUE;DRILLING DEPTH (MIN.);DRILLING DEPTH (MAX.);LAND/SEA (SAMPLING);ROCK TYPE;ROCK NAME;ROCK TEXTURE;SAMPLE COMMENT;AGE (MIN.);AGE (MAX.);GEOLOGICAL AGE;GEOLOGICAL AGE PREFIX;ERUPTION YEAR;ALTERATION;ALTERATION TYPE;TYPE OF MATERIAL;MINERAL / COMPONENT;SPOT (MINERAL);CRYSTAL;RIM / CORE (MINERAL GRAINS);GRAIN SIZE;PRIMARY/SECONDARY;INCLUSION TYPE;SPOT (INCLUSION);MINERAL (INCLUSION);RIM / CORE (INCLUSION);HOSTMINERAL (INCLUSION);HEATING;HEATING TEMPERATURE (?C);SIO2(WT%);TIO2(WT%);AL2O3(WT%);CR2O3(WT%);V2O3(WT%);V2O5(WT%);FE2O3T(WT%);FE2O3(WT%);FEOT(WT%);FEO(WT%);CAO(WT%);MGO(WT%);MNO(WT%);BAO(WT%);SRO(WT%);NIO(WT%);ZNO(WT%);COO(WT%);K2O(WT%);;;;NA2O(WT%);;;;P2O5(WT%);H2O(WT%);H2OP(WT%);H2OM(WT%);CO2(WT%);F(WT%);CL(WT%);CL2(WT%);SO3(WT%);S(WT%);LOI(WT%);O(WT%);SI(WT%);AL(WT%);TI(WT%);FE(WT%);MG(WT%);MN(WT%);CA(WT%);K(WT%): altern. values or methods;;;;NA(WT%);CR(WT%);NI(WT%);HE(CCMSTP/G);HE3(CCMSTP/G);HE4(CCMSTP/G): altern. values or methods;;;;LI(PPM);BE(PPM);B(PPM);F(PPM);NE20(CCMSTP/G);NE22(CCMSTP/G);P(PPM);S(PPM);CL(PPM);AR36(CCMSTP/G);AR40(CCMSTP/G);AR40(MOL/G): altern. values or methods;;;;AR40(PPB);K(PPM);SC(PPM): altern. values or methods;;;;;;TI(PPM);V(PPM): altern. values or methods;;;;CR(PPM): altern. values or methods;;;;MN(PPM);FE(PPM);CO(PPM): altern. values or methods;;;;;;NI(PPM): altern. values or methods;;;;;;CU(PPM): altern. values or methods;;;;ZN(PPM): altern. values or methods;;;;GA(PPM): altern. values or methods;;;;GE(PPM);AS(PPM);KR84(CCMSTP/G);RB(PPM): altern. values or methods;;;;SR(PPM): altern. values or methods;;;;Y(PPM): altern. values or methods;;;;ZR(PPM): altern. values or methods;;;;NB(PPM): altern. values or methods;;;;MO(PPM);RU(PPB);RH(PPB);PD(PPB);IN(PPM);SN(PPM);SB(PPM);XE132(CCMSTP/G);CS(PPM);BA(PPM): altern. values or methods;;;;LA(PPM): altern. values or methods;;;;CE(PPM): altern. values or methods;;;;PR(PPM): altern. values or methods;;;;ND(PPM): altern. values or methods;;;;SM(PPM): altern. values or methods;;;;EU(PPM): altern. values or methods;;;;GD(PPM);TB(PPM): altern. values or methods;;;;DY(PPM);HO(PPM);ER(PPM);TM(PPM);YB(PPM): altern. values or methods;;;;LU(PPM);HF(PPM): altern. values or methods;;;;TA(PPM);W(PPM);RE(PPB): altern. values or methods;;;;RE(PPT);OS(PPB): altern. values or methods;;;;OS(PPT);IR(PPB);PT(PPB);AU(PPB);HG(PPB);TL(PPM);PB(PPM): altern. values or methods;;;;PB210_ACT(DPM/G);TH(PPM): altern. values or methods;;;;TH(PPB);U(PPM): altern. values or methods;;;;U(PPB);CO2(PPM);H2O(PPM);ND143_ND144;ND148_ND144;SM147_ND144;SR87_SR86;RB87_SR86;PB206_PB204: altern. values or methods;;;;PB206_PB207;PB206_PB208;PB207_PB204: altern. values or methods;;;;PB207_PB206;PB208_PB204: altern. values or methods;;;;PB208_PB206;OS187_OS186;OS187_OS188: altern. values or methods;;;;RE187_OS188: altern. values or methods;;;;HF176_HF177;HE3_HE4;HE3_HE4(R/R(A)): altern. values or methods;;;;HE4_HE3: altern. values or methods;;;;;;HE4_HE3(R/R(A)): altern. values or methods;;;;AR38_AR36;AR40_AR36;NE20_NE22;NE21_NE22;XE129_XE132;PB206_U238;PB207_U235;PB210_U238;TH232_U238;U238_PB204;D13C(VS SMOW);D17O(VS VSMOW);D18O(PER MIL);D18O(VS PDB);D18O(VS SMOW);D18O(VS VSMOW);D34S(VS CDT);D44_40CA(VS SRM915A);D56FE(VS IRMM-014);DD(VS SMOW);ALBITE(MOL%);ACMITE(MOL%);ANORTHITE(MOL%);ENSTATITE(MOL%);FAYALITE(MOL%);FORSTERITE(MOL%);FERROSILITE(MOL%);HEMATITE(MOL%);LARNITE(MOL%);ORTHOCLASE(MOL%);PSEUDOBROOKITE(MOL%);TEPHROITE(MOL%);ULVOSPINEL(MOL%);WOLLASTONITE(MOL%);AGE(KA);AGE(MA): altern. values or methods;;;;;;;;AGE_PB207_PB206(MA);AGE_PB207_U235(MA);AGE_PB206_U238(MA);
1979;[11322] SEGALSTAD T. V. (1979);samp. S11;372067;OSLO-SKAGERRAK RIFT / OSLO RIFT / VESTFOLD GRABEN / SKIEN LAVAS;SKIEN;59.72;10.84;59.72;10.84;;;OUTCROP;;;SUBAERIAL;VOLCANIC ROCK;ANKARAMITE;;;;;PERMIAN;;;;;WHOLE ROCK;;;;;;;;;;;;;;44.3;3.24;11;;;;;6.3;;6.4;12.85;10.8;0.2;;;;;;2.21;XRF;;;1.94;INAA;;;0.39;;;;;;;;;;;;;;;;;;;;;;;;;;;;;;;;;;;;;;;;;;;;;;;;;;;;;;;;;;;;;;;;;;;;;;;;;;;;;;;;;;;;;;;;;;;;;;;;;;;;;;;;;;;;;;;;;;;;;;;;;;;;;;;;;;;;;;;;;;;;;;;;;;;;;;;;;;;;;;;;;;;;;;;;;;;;;;;;;;;;;;;;;;;;;;;;;;;;;;;;;;;;;;;;;;;;;;;;;;;;;;;;;;;;;;;;;;;;;;;;;;;;;;;;;;;;;;;;;;;;;;;;;;;;;;;;;;;;;;;;;;;;;;;;;;;;;;
1979;[11322] SEGALSTAD T. V. (1979);samp. W63;;OSLO-SKAGERRAK RIFT / OSLO RIFT / VESTFOLD GRABEN / SKIEN LAVAS;SKIEN;59.72;10.84;59.72;10.84;;;OUTCROP;;;SUBAERIAL;VOLCANIC ROCK;ANKARAMITE;;;;;PERMIAN;;;;;WHOLE ROCK;;;;;;;;;;;;;;42.1;3.95;11.4;;;;;5.5;;8.5;12.7;7.79;0.18;;;;;;1.22;XRF;;;2.93;INAA;;;;;;;;;;;;;;;;;;;;;;;;;;;;;;;;;;;;;;;;;;;;;;;;;;;;;;;;;;;;;;;;;;;;;;;;;;;;;;;;;;;;;;;;;;;;;;;;;;;;;;;;;;;;;;;;;;;;;;;;;;;;;;;;;;;;;;;;;;;;;;;;;;;;;;;;;;;;;;;;;;;;;;;;;;;;;;;;;;;;;;;;;;;;;;;;;6.8;NOT;;;;1.5;NOT;;;;;;;;;;;;;;;;;;;;;;;;;;;;;;;;;;;;;;;;;;;;;;;;;;;;;;;;;;;;;;;;;;;;;;;;;;;;;;;;;;;;;;;;;;;;;;;;;;
1979;[11322] SEGALSTAD T. V. (1979);samp. S22;372053;OSLO-SKAGERRAK RIFT / OSLO RIFT / VESTFOLD GRABEN / SKIEN LAVAS;SKIEN;59.72;10.84;59.72;10.84;;;OUTCROP;;;SUBAERIAL;VOLCANIC ROCK;ANKARAMITE;;ALTERED;;;PERMIAN;;;;;WHOLE ROCK;;;;;;;;;;;;;;44.7;3.14;13.7;;;;;5.3;;6.2;10.04;8.6;0.18;;;;;;1.44;XRF;;;3.86;INAA;;;0.53;;;;;;;;;;;;;;;;;;;;;;;;;;;;;;;;;;;;;;;;;;;;;;;;;;;;;;;;;;;;;;;;;;;;;;;;;;;;;;;;;;;;;;;;;;;;;;;;;;;;;;;;;;;;;;;;;;;;;;;;;;;;;;;;;;;;;;;;;;;;;;;;;;;;;;;;;;;;;;;;;;;;;;;;;;;;;;;;;;;;;;;;;;;;;;;;;;;;;;;;;;;;;;;;;;;;;;;;;;;;;;;;;;;;;;;;;;;;;;;;;;;;;;;;;;;;;;;;;;;;;;;;;;;;;;;;;;;;;;;;;;;;;;;;;;;;;;
1979;[11322] SEGALSTAD T. V. (1979);samp. S26;372054;OSLO-SKAGERRAK RIFT / OSLO RIFT / VESTFOLD GRABEN / SKIEN LAVAS;SKIEN;59.72;10.84;59.72;10.84;;;OUTCROP;;;SUBAERIAL;VOLCANIC ROCK;ANKARAMITE;;;;;PERMIAN;;;;;WHOLE ROCK;;;;;;;;;;;;;;45.2;3.04;9.2;;;;;6.4;;6.3;12.16;11.5;0.19;;;;;;1.64;XRF;;;2.79;INAA;;;0.45;;;;;;;;;;;;;;;;;;;;;;;;;;;;;;;;;;;;;;;;;;;;;;;;;;;;;;;;;;;;;;;;;;;;;;;;;;;;;;;;;;;;;;;;;;;;;;;;;;;;;;;;;;;;;;;;;;;;;;;;;;;;;;;;;;;;;;;;;;;;;;;;;;;;;;;;;;;;;;;;;;;;;;;;;;;;;;;;;;;;;;;;;;;;;;;;;;;;;;;;;;;;;;;;;;;;;;;;;;;;;;;;;;;;;;;;;;;;;;;;;;;;;;;;;;;;;;;;;;;;;;;;;;;;;;;;;;;;;;;;;;;;;;;;;;;;;;
1979;[11322] SEGALSTAD T. V. (1979);samp. S27;372055;OSLO-SKAGERRAK RIFT / OSLO RIFT / VESTFOLD GRABEN / SKIEN LAVAS;SKIEN;59.72;10.84;59.72;10.84;;;OUTCROP;;;SUBAERIAL;VOLCANIC ROCK;ANKARAMITE;;TUFF;;;PERMIAN;;;;;WHOLE ROCK;;;;;;;;;;;;;;46;3.13;11;;;;;5.3;;7.3;10.42;10;0.19;;;;;;1.75;XRF;;;3.33;INAA;;;0.5;;;;;;;;;;;;;;;;;;;;;;;;;;;;;;;;;;;;;;;;;;;;;;;;;;;;;;;;;;;;;;;;;;;;;;;;;;;;;;;;;;;;;;;;;;;;;;;;;;;;;;;;;;;;;;;;;;;;;;;;;;;;;;;;;;;;;;;;;;;;;;;;;;;;;;;;;;;;;;;;;;;;;;;;;;;;;;;;;;;;;;;;;;;;;;;;;;;;;;;;;;;;;;;;;;;;;;;;;;;;;;;;;;;;;;;;;;;;;;;;;;;;;;;;;;;;;;;;;;;;;;;;;;;;;;;;;;;;;;;;;;;;;;;;;;;;;;
1979;[11322] SEGALSTAD T. V. (1979);samp. S31;;OSLO-SKAGERRAK RIFT / OSLO RIFT / VESTFOLD GRABEN / SKIEN LAVAS;SKIEN;59.72;10.84;59.72;10.84;;;OUTCROP;;;SUBAERIAL;VOLCANIC ROCK;ANKARAMITE;;ALTERED;;;PERMIAN;;;;;WHOLE ROCK;;;;;;;;;;;;;;43.1;3.89;13;;;;;6.7;;7;12.07;6.7;0.28;;;;;;0.78;XRF;;;4.4;INAA;;;0.61;;;;;;;;;;;;;;;;;;;;;;;;;;;;;;;;;;;;;;;;;;;;;;;;;;;;;;;;;;;;;;;;;;;;;;;;;;;;;;;;;;;;;;;;;;;;;;;;;;;;;;;;;;;;;;;;;;;;;;;;;;;;;;;;;;;;;;;;;;;;;;;;;;;;;;;;;;;;;;;;;;;;;;;;;;;;;;;;;;;;;;;;;;;;;;;;;;;;;;;;;;;;;;;;;;;;;;;;;;;;;;;;;;;;;;;;;;;;;;;;;;;;;;;;;;;;;;;;;;;;;;;;;;;;;;;;;;;;;;;;;;;;;;;;;;;;;;
1979;[11322] SEGALSTAD T. V. (1979);samp. S41;372057;OSLO-SKAGERRAK RIFT / OSLO RIFT / VESTFOLD GRABEN / SKIEN LAVAS;SKIEN;59.72;10.84;59.72;10.84;;;OUTCROP;;;SUBAERIAL;VOLCANIC ROCK;ANKARAMITE;;;;;PERMIAN;;;;;WHOLE ROCK;;;;;;;;;;;;;;46.3;2.56;7.8;;;;;7.2;;5.6;14.16;11.8;0.21;;;;;;1.24;XRF;;;2.2;INAA;;;0.39;;;;;;;;;;;;;;;;;;;;;;;;;;;;;;;;;;;;;;;;;;;;;;;;;;;;;;;;;;;;;;;;;;;;;;;;;;;;;;;;;;;;;;;;;;;;;;;;;;;;;;;;;;;;;;;;;;;;;;;;;;;;;;;;;;;;;;;;;;;;;;;;;;;;;;;;;;;;;;;;;;;;;;;;;;;;;;;;;;;;;;;;;;;;;;;;;;;;;;;;;;;;;;;;;;;;;;;;;;;;;;;;;;;;;;;;;;;;;;;;;;;;;;;;;;;;;;;;;;;;;;;;;;;;;;;;;;;;;;;;;;;;;;;;;;;;;;
1979;[11322] SEGALSTAD T. V. (1979);samp. W64;;OSLO-SKAGERRAK RIFT / OSLO RIFT / VESTFOLD GRABEN / SKIEN LAVAS;SKIEN;59.72;10.84;59.72;10.84;;;OUTCROP;;;SUBAERIAL;VOLCANIC ROCK;ANKARAMITE;;;;;PERMIAN;;;;;WHOLE ROCK;;;;;;;;;;;;;;45.9;2.81;13.9;;;;;4.7;;7.3;11.06;6.24;0.16;;;;;;1.99;XRF;;;3.2;INAA;;;;;;;;;;;;;;;;;;;;;;;;;;;;;;;;;;;;;;;;;;;;;;;;;;;;;;;;;;;;;;;;;;;;;;;;;;;;;;;;;;;;;;;;;;;;;;;;58;NOT;;;1692;NOT;;;;;;;;;;;;;;;;;;;;;;;;;;;;;;;;;;;;;;;;;;;;;;;;;;;;;;;;;;;;;;;;;;;;;;;;;;;;;;;;;;;;;;;;;;;;5.3;NOT;;;;1.2;NOT;;;;;;;;;;;;;;;;;;;;;;;;;;;;;;;;;;;;;;;;;;;;;;;;;;;;;;;;;;;;;;;;;;;;;;;;;;;;;;;;;;;;;;;;;;;;;;;;;;
1979;[11322] SEGALSTAD T. V. (1979);samp. W65;;OSLO-SKAGERRAK RIFT / OSLO RIFT / VESTFOLD GRABEN / SKIEN LAVAS;SKIEN;59.72;10.84;59.72;10.84;;;OUTCROP;;;SUBAERIAL;VOLCANIC ROCK;ANKARAMITE;;;;;PERMIAN;;;;;WHOLE ROCK;;;;;;;;;;;;;;43.8;3.35;12.7;;;;;7.8;;5.9;10.8;7.24;0.19;;;;;;2.72;XRF;;;2.7;INAA;;;;;;;;;;;;;;;;;;;;;;;;;;;;;;;;;;;;;;;;;;;;;;;;;;;;;;;;;;;;;;;;;;;;;;;;;;;;;;;;;;;;;;;;;;;;;;;;;;;;;;;;;;;;;;;;;;;;;;;;;;;;;;;;;;;;;;;;;;;;;;;;;;;;;;;;;;;;;;;;;;;;;;;;;;;;;;;;;;;;;;;;;;;;;;;;;7;NOT;;;;1.9;NOT;;;;;;;;;;;;;;;;;;;;;;;;;;;;;;;;;;;;;;;;;;;;;;;;;;;;;;;;;;;;;;;;;;;;;;;;;;;;;;;;;;;;;;;;;;;;;;;;;;
1979;[11322] SEGALSTAD T. V. (1979);samp. S49;372059;OSLO-SKAGERRAK RIFT / OSLO RIFT / VESTFOLD GRABEN / SKIEN LAVAS;SKIEN;59.72;10.84;59.72;10.84;;;OUTCROP;;;SUBAERIAL;VOLCANIC ROCK;ANKARAMITE;;;;;PERMIAN;;;;;WHOLE ROCK;;;;;;;;;;;;;;46.1;2.63;10.5;;;;;7;;5.1;12.38;10.4;0.18;;;;;;1.45;XRF;;;2.27;INAA;;;0.32;;;;;;;;;;;;;;;;;;;;;;;;;;;;;;;;;;;;;;;;;;;;;;;;;;;;;;;;;;;;;;;;;;;;;;;;;;;;;;;;;;;;;;;;;;;;;;;;;;;;;;;;;;;;;;;;;;;;;;;;;;;;;;;;;;;;;;;;;;;;;;;;;;;;;;;;;;;;;;;;;;;;;;;;;;;;;;;;;;;;;;;;;;;;;;;;;;;;;;;;;;;;;;;;;;;;;;;;;;;;;;;;;;;;;;;;;;;;;;;;;;;;;;;;;;;;;;;;;;;;;;;;;;;;;;;;;;;;;;;;;;;;;;;;;;;;;;
1979;[11322] SEGALSTAD T. V. (1979);samp. S55;372060;OSLO-SKAGERRAK RIFT / OSLO RIFT / VESTFOLD GRABEN / SKIEN LAVAS;SKIEN;59.72;10.84;59.72;10.84;;;OUTCROP;;;SUBAERIAL;VOLCANIC ROCK;ANKARAMITE;;;;;PERMIAN;;;;;WHOLE ROCK;;;;;;;;;;;;;;43.7;3.63;9.7;;;;;10.5;;4.3;12.38;10.5;0.21;;;;;;1.8;XRF;;;1.82;INAA;;;0.44;;;;;;;;;;;;;;;;;;;;;;;;;;;;;;;;;;;;;;;;;;;;;;;;;;;;;;;;;;;;;;;;;;;;;;;;;;;;;;;;;;;;;;;;;;;;;;;;;;;;;;;;;;;;;;;;;;;;;;;;;;;;;;;;;;;;;;;;;;;;;;;;;;;;;;;;;;;;;;;;;;;;;;;;;;;;;;;;;;;;;;;;;;;;;;;;;;;;;;;;;;;;;;;;;;;;;;;;;;;;;;;;;;;;;;;;;;;;;;;;;;;;;;;;;;;;;;;;;;;;;;;;;;;;;;;;;;;;;;;;;;;;;;;;;;;;;;
2008;[11342] ICHIYAMA Y.(2008)  [GeoReM [4145] ];samp. 020429-5;;HONSHU ARC / CENTRAL HONSHU ARC / HONSHU;MINO BELT, FUNAFUSEYAMA AREA, HASHIKADANI ROUTE;35.5;136.8;36;137.2;;;OUTCROP;;;SUBAERIAL;VOLCANIC ROCK;ANKARAMITE;;GREENSTONES;;;PERMIAN;;;;;WHOLE ROCK;;;;;;;;;;;;;;;;;;;;;;;;;;;;;;;;;;;;;;;;;;;;;;;;;;;;;;;;;;;;;;;;;;;;;;;;;;;;;;;;;;;;;;;;;;;;;;;;;;;;;;;;;;;;;;;;;;;;;;;;;;;;;;;;;;;;;;;;;;;;;;;;;;;;;;;;;;;;;;;;;;;;;;;;;;;;;;;;;;;;;;;;;;;;;;;;;;;;;;;;;;;;;;;;;;;;;;;;;;;;;;;;;;;;;;6.15;INAA;;;;;;;;;;;;;;;;;;;;;;;;;;;;;;;;;;;;;;;;;;;;;;;;;;;;;;;;;;;;;;;;;;;;;;;;;;;;;;;;;;;;;;;;;;;;;;;;;;;;;;;
2008;[11342] ICHIYAMA Y.(2008)  [GeoReM [4145] ];samp. 020429-5;;HONSHU ARC / CENTRAL HONSHU ARC / HONSHU;MINO BELT, FUNAFUSEYAMA AREA, HASHIKADANI ROUTE;35.5;136.8;36;137.2;;;OUTCROP;;;SUBAERIAL;VOLCANIC ROCK;ANKARAMITE;;GREENSTONES;;;PERMIAN;;;;;MINERAL / COMPONENT (INCL. GROUNDMASS);CLINOPYROXENE;;;;;PRIMARY;;;;;;;;;;;;;;;;;;;;;;;;;;;;;;;;;;;;;;;;;;;;;;;;;;;;;;;;;;;;;;;;;;;;;;;;;;;;;;;;;;;;;;;;;;;;;;;;;;;;;;;;;;;;;;;;;;;;;;;;;;;;;;;10.9;TIMS_ID;;;147;TIMS_ID;;;;;;;;;;;;;;;;;;;;;;;;;;;;;;;;;;;;;;;;28.6;TIMS_ID;;;8.3;TIMS_ID;;;;;;;;;;;;;;;;;;;;;;;;;;;;;;;;;;;;;;;;;;;;;;;;;;;;;;;;;;;0.512957;;0.176;0.70352;0.199;;;;;;;;;;;;;;;;;;;;;;;;;;;;;;;;;;;;;;;;;;;;;;;;;;;;;;;;;;;;;;;;;;;;;;;;;;;;;;;;;;;;;;;;
1977;[11456] SUTHERLAND F. L. (1977);samp. 1;;AUSTRALIA / EASTERN AUSTRALIAN CENOZOIC VOLCANIC ZONE / QUEENSLAND / MOUNT FOX;8 KM W OF CAMEL CREEK HOMESTEAD;-18.8467;145.3933;-18.8467;145.3933;;;OUTCROP;;;SUBAERIAL;VOLCANIC ROCK;ANKARAMITE;;;;;PLEISTOCENE;;;;;WHOLE ROCK;;;;;;;;;;;;;;44.74;2.79;13.19;;;;;3.23;;8.43;9.43;9.97;0.17;;;;;;1.97;XRF;;;3.31;AES;;;0.86;;;;;;;;;;1.6;;;;;;;;;;;;;;;;;;;;;;;;;;;;;;;;;;;;;;;;;;;;;;192;XRF;;;337;XRF;;;1272;;;;;;;;229;XRF;;;;;82;XRF;;;116;XRF;;;22;XRF;;;;;;30;XRF;;;885;XRF;;;26;XRF;;;250;XRF;;;;;;;;;;;;;;;;310;XRF;;;;;;;;;;;;;;;;;;;;;;;;;;;;;;;;;;;;;;;;;;;;;;;;;;;;;;;;;;;;;;11;XRF;;;;7;XRF;;;;0;XRF;;;;;;;;;;;;;;;;;;;;;;;;;;;;;;;;;;;;;;;;;;;;;;;;;;;;;;;;;;;;;;;;;;;;;;;;;;;;;;;;;;;;;;;;;;;;;;;;;;
1981;[11683] EHRENBERG K.-H. (1981);samp. 12161;;EUROPEAN OROGENIC BELT - CENOZOIC/QUATERNARY / GERMANY / VOGELSBERG;HASSELBORN 2/2A DRILL CORE;50.5;9.2;50.5;9.2;;;DRILL HOLE ;;;SUBAERIAL;VOLCANIC ROCK;ANKARAMITE;COARSELY PORPHYRITIC;;;;MIOCENE;;;;;WHOLE ROCK;;;;;;;;;;;;;;;;;;;;;;;;;;;;;;;;;;;;;;;;;;;;;;;;;;;;;;;;;;;0.43;NOT;;;;;;;;;;;;;;;;;;;;;;3.1E-07;;;;;;;;;;;;;;;;;;;;;;;;;;;;;;;;;;;;;;;;;;;;;;;;;;;;;;;;;;;;;;;;;;;;;;;;;;;;;;;;;;;;;;;;;;;;;;;;;;;;;;;;;;;;;;;;;;;;;;;;;;;;;;;;;;;;;;;;;;;;;;;;;;;;;;;;;;;;;;;;;;;;;;;;;;;;;;;;;;;;;;;;;;;;;;;;;;;;;;;;;;;;;;;;;;;;;;;;;;;;;;;;;;;;;;;;;;;;;;;;;18.45;K-AR;;;;;;;;;;
1981;[11683] EHRENBERG K.-H. (1981);samp. 12161;;EUROPEAN OROGENIC BELT - CENOZOIC/QUATERNARY / GERMANY / VOGELSBERG;HASSELBORN 2/2A DRILL CORE;50.5;9.2;50.5;9.2;;;DRILL HOLE ;;;SUBAERIAL;VOLCANIC ROCK;ANKARAMITE;COARSELY PORPHYRITIC;;;;MIOCENE;;;;;WHOLE ROCK;;;;;;;;;;;;;;;;;;;;;;;;;;;;;;;;;;;;;;;;;;;;;;;;;;;;;;;;;;;0.405;NOT;;;;;;;;;;;;;;;;;;;;;;2.97E-07;;;;;;;;;;;;;;;;;;;;;;;;;;;;;;;;;;;;;;;;;;;;;;;;;;;;;;;;;;;;;;;;;;;;;;;;;;;;;;;;;;;;;;;;;;;;;;;;;;;;;;;;;;;;;;;;;;;;;;;;;;;;;;;;;;;;;;;;;;;;;;;;;;;;;;;;;;;;;;;;;;;;;;;;;;;;;;;;;;;;;;;;;;;;;;;;;;;;;;;;;;;;;;;;;;;;;;;;;;;;;;;;;;;;;;;;;;;;;;;;;18.85;K-AR;;;;;;;;;;
2002;[11710] NKOUATHIO D. G. (2002);samp. NT19;;MID-AFRICAN RIFT SYSTEM / CAMEROON LINE (CONTINENTAL SECTION) / SOUTHERN CAMEROON LINE / TOMBEL VOLCANIC FIELD;TOMBEL GRABEN;4.55;9.58;4.97;9.85;;;OUTCROP;;;SUBAERIAL;VOLCANIC ROCK;ANKARAMITE;;FLOW;;;EOCENE;;;;;WHOLE ROCK;;;;;;;;;;;;;;43.7;2.67;12.44;;;;12.67;;;;11.33;11.73;0.18;;;;;;0.81;ICPAES;;;2.7;ICPAES;;;0.65;;;;;;;;;;0.94;;;;;;;;;;;;;;;;;;;;;;;;;;;;;;;;;;;;;;;20.6;ICPAES;;;;;;256;ICPMS;;;508;ICPMS;;;;;51.6;ICPMS;;;;;272;ICPMS;;;;;63.6;ICPMS;;;;;;;;;;;;;;24.4;ICPMS;;;669;ICPMS;;;22.7;ICPMS;;;192;ICPMS;;;46.5;ICPMS;;;;;;;;;;;0.64;387;ICPMS;;;34.65;ICPMS;;;72.17;ICPMS;;;;;;;35.46;ICPMS;;;7.66;ICPMS;;;2.35;ICPMS;;;6.14;0.88;ICPMS;;;4.67;;1.95;;1.64;ICPMS;;;0.21;6.14;ICPMS;;;3.23;;;;;;;;;;;;;;;;;;;;;;3.47;ICPMS;;;;0.88;ICPMS;;;;;;;;;;;;;;;;;;;;;;;;;;;;;;;;;;;;;;;;;;;;;;;;;;;;;;;;;;;;;;;;;;;;;;;;;;;;;;;;;;;;;;;;;;;;;;;;;;
2002;[11710] NKOUATHIO D. G. (2002);samp. NT88;;MID-AFRICAN RIFT SYSTEM / CAMEROON LINE (CONTINENTAL SECTION) / SOUTHERN CAMEROON LINE / TOMBEL VOLCANIC FIELD;TOMBEL GRABEN;4.55;9.58;4.97;9.85;;;OUTCROP;;;SUBAERIAL;VOLCANIC ROCK;ANKARAMITE;;FLOW;;;EOCENE;;;;;WHOLE ROCK;;;;;;;;;;;;;;43.77;2.88;13.77;;;;13.38;;;;10.63;10.2;0.18;;;;;;1.06;ICPAES;;;2.75;ICPAES;;;0.6;;;;;;;;;;0.6;;;;;;;;;;;;;;;;;;;;;;;;;;;;;;;;;;;;;;;20.3;ICPAES;;;;;;270;ICPMS;;;265;ICPMS;;;;;51.1;ICPMS;;;;;177;ICPMS;;;;;33.9;ICPMS;;;;;;;;;;;;;;29.9;ICPMS;;;633;ICPMS;;;26.7;ICPMS;;;227;ICPMS;;;53.1;ICPMS;;;;;;;;;;;0.48;371;ICPMS;;;37.73;ICPMS;;;78.84;ICPMS;;;;;;;39.47;ICPMS;;;8.3;ICPMS;;;2.62;ICPMS;;;6.89;1.02;ICPMS;;;5.29;;2.45;;1.97;ICPMS;;;0.28;5.14;ICPMS;;;3.74;;;;;;;;;;;;;;;;;;;;;;4.07;ICPMS;;;;1.03;ICPMS;;;;;;;;;;;;;;;;;;;;;;;;;;;;;;;;;;;;;;;;;;;;;;;;;;;;;;;;;;;;;;;;;;;;;;;;;;;;;;;;;;;;;;;;;;;;;;;;;;
2002;[11710] NKOUATHIO D. G. (2002);samp. NT19;;MID-AFRICAN RIFT SYSTEM / CAMEROON LINE (CONTINENTAL SECTION) / SOUTHERN CAMEROON LINE / TOMBEL VOLCANIC FIELD;TOMBEL GRABEN;4.55;9.58;4.97;9.85;;;OUTCROP;;;SUBAERIAL;VOLCANIC ROCK;ANKARAMITE;;FLOW;;;EOCENE;;;;;MINERAL / COMPONENT (INCL. GROUNDMASS);OLIVINE;;PHENOCRYST;CORE;;PRIMARY;;;;;;;;40.11;0.01;0.03;0.05;;;;;12.58;;0.19;45.67;0.14;;;0.29;;;;;;;;;;;;;;;;;;;;;;;;;;;;;;;;;;;;;;;;;;;;;;;;;;;;;;;;;;;;;;;;;;;;;;;;;;;;;;;;;;;;;;;;;;;;;;;;;;;;;;;;;;;;;;;;;;;;;;;;;;;;;;;;;;;;;;;;;;;;;;;;;;;;;;;;;;;;;;;;;;;;;;;;;;;;;;;;;;;;;;;;;;;;;;;;;;;;;;;;;;;;;;;;;;;;;;;;;;;;;;;;;;;;;;;;;;;;;;;;;;;;;;;;;;;;;;;;;;;;;;;;;;;;;;;;;;;;;;;;;;;;86.6;;;;;;;;;;;;;;;;;;;;;
2002;[11710] NKOUATHIO D. G. (2002);samp. NT19;;MID-AFRICAN RIFT SYSTEM / CAMEROON LINE (CONTINENTAL SECTION) / SOUTHERN CAMEROON LINE / TOMBEL VOLCANIC FIELD;TOMBEL GRABEN;4.55;9.58;4.97;9.85;;;OUTCROP;;;SUBAERIAL;VOLCANIC ROCK;ANKARAMITE;;FLOW;;;EOCENE;;;;;MINERAL / COMPONENT (INCL. GROUNDMASS);OLIVINE;;PHENOCRYST;RIM;;PRIMARY;;;;;;;;38.79;0.06;0.02;0;;;;;19.26;;0.32;39.89;0.24;;;0.15;;;;;;;;;;;;;;;;;;;;;;;;;;;;;;;;;;;;;;;;;;;;;;;;;;;;;;;;;;;;;;;;;;;;;;;;;;;;;;;;;;;;;;;;;;;;;;;;;;;;;;;;;;;;;;;;;;;;;;;;;;;;;;;;;;;;;;;;;;;;;;;;;;;;;;;;;;;;;;;;;;;;;;;;;;;;;;;;;;;;;;;;;;;;;;;;;;;;;;;;;;;;;;;;;;;;;;;;;;;;;;;;;;;;;;;;;;;;;;;;;;;;;;;;;;;;;;;;;;;;;;;;;;;;;;;;;;;;;;;;;;;;78.7;;;;;;;;;;;;;;;;;;;;;
2002;[11710] NKOUATHIO D. G. (2002);samp. NT19;;MID-AFRICAN RIFT SYSTEM / CAMEROON LINE (CONTINENTAL SECTION) / SOUTHERN CAMEROON LINE / TOMBEL VOLCANIC FIELD;TOMBEL GRABEN;4.55;9.58;4.97;9.85;;;OUTCROP;;;SUBAERIAL;VOLCANIC ROCK;ANKARAMITE;;FLOW;;;EOCENE;;;;;MINERAL / COMPONENT (INCL. GROUNDMASS);OLIVINE;;MICROCRYST;;;PRIMARY;;;;;;;;37.01;0.1;0.06;0.01;;;;;26.31;;0.61;34.15;0.44;;;0.09;;;;;;;;;;;;;;;;;;;;;;;;;;;;;;;;;;;;;;;;;;;;;;;;;;;;;;;;;;;;;;;;;;;;;;;;;;;;;;;;;;;;;;;;;;;;;;;;;;;;;;;;;;;;;;;;;;;;;;;;;;;;;;;;;;;;;;;;;;;;;;;;;;;;;;;;;;;;;;;;;;;;;;;;;;;;;;;;;;;;;;;;;;;;;;;;;;;;;;;;;;;;;;;;;;;;;;;;;;;;;;;;;;;;;;;;;;;;;;;;;;;;;;;;;;;;;;;;;;;;;;;;;;;;;;;;;;;;;;;;;;;;69.8;;;;;;;;;;;;;;;;;;;;;
2002;[11710] NKOUATHIO D. G. (2002);samp. NT19;;MID-AFRICAN RIFT SYSTEM / CAMEROON LINE (CONTINENTAL SECTION) / SOUTHERN CAMEROON LINE / TOMBEL VOLCANIC FIELD;TOMBEL GRABEN;4.55;9.58;4.97;9.85;;;OUTCROP;;;SUBAERIAL;VOLCANIC ROCK;ANKARAMITE;;FLOW;;;EOCENE;;;;;MINERAL / COMPONENT (INCL. GROUNDMASS);CLINOPYROXENE;;PHENOCRYST;CORE;;PRIMARY;;;;;;;;49.15;1.68;3.79;0.33;;;;1.54;;4.53;22.33;14.56;0.14;;;;;;0.04;EMP (EPMA);;;0.22;EMP (EPMA);;;;;;;;;;;;;;;;;;;;;;;;;;;;;;;;;;;;;;;;;;;;;;;;;;;;;;;;;;;;;;;;;;;;;;;;;;;;;;;;;;;;;;;;;;;;;;;;;;;;;;;;;;;;;;;;;;;;;;;;;;;;;;;;;;;;;;;;;;;;;;;;;;;;;;;;;;;;;;;;;;;;;;;;;;;;;;;;;;;;;;;;;;;;;;;;;;;;;;;;;;;;;;;;;;;;;;;;;;;;;;;;;;;;;;;;;;;;;;;;;;;;;;;;;;;;;;;;;;;;;;;;;;;;;;;;;;42.93;;;9.81;;;;;;;47.26;;;;;;;;;;;;;
2002;[11710] NKOUATHIO D. G. (2002);samp. NT19;;MID-AFRICAN RIFT SYSTEM / CAMEROON LINE (CONTINENTAL SECTION) / SOUTHERN CAMEROON LINE / TOMBEL VOLCANIC FIELD;TOMBEL GRABEN;4.55;9.58;4.97;9.85;;;OUTCROP;;;SUBAERIAL;VOLCANIC ROCK;ANKARAMITE;;FLOW;;;EOCENE;;;;;MINERAL / COMPONENT (INCL. GROUNDMASS);CLINOPYROXENE;;PHENOCRYST;RIM;;PRIMARY;;;;;;;;46.39;2.48;6.62;0.78;;;;2.77;;3.55;22.49;13.16;0.12;;;;;;0;EMP (EPMA);;;0.36;EMP (EPMA);;;;;;;;;;;;;;;;;;;;;;;;;;;;;;;;;;;;;;;;;;;;;;;;;;;;;;;;;;;;;;;;;;;;;;;;;;;;;;;;;;;;;;;;;;;;;;;;;;;;;;;;;;;;;;;;;;;;;;;;;;;;;;;;;;;;;;;;;;;;;;;;;;;;;;;;;;;;;;;;;;;;;;;;;;;;;;;;;;;;;;;;;;;;;;;;;;;;;;;;;;;;;;;;;;;;;;;;;;;;;;;;;;;;;;;;;;;;;;;;;;;;;;;;;;;;;;;;;;;;;;;;;;;;;;;;;;40.21;;;10.42;;;;;;;49.37;;;;;;;;;;;;;
2002;[11710] NKOUATHIO D. G. (2002);samp. NT19;;MID-AFRICAN RIFT SYSTEM / CAMEROON LINE (CONTINENTAL SECTION) / SOUTHERN CAMEROON LINE / TOMBEL VOLCANIC FIELD;TOMBEL GRABEN;4.55;9.58;4.97;9.85;;;OUTCROP;;;SUBAERIAL;VOLCANIC ROCK;ANKARAMITE;;FLOW;;;EOCENE;;;;;MINERAL / COMPONENT (INCL. GROUNDMASS);CLINOPYROXENE;;MICROCRYST;;;PRIMARY;;;;;;;;47.29;2.96;5.8;0.02;;;;2.02;;7.24;21.92;12.49;0.12;;;;;;0;EMP (EPMA);;;0.32;EMP (EPMA);;;;;;;;;;;;;;;;;;;;;;;;;;;;;;;;;;;;;;;;;;;;;;;;;;;;;;;;;;;;;;;;;;;;;;;;;;;;;;;;;;;;;;;;;;;;;;;;;;;;;;;;;;;;;;;;;;;;;;;;;;;;;;;;;;;;;;;;;;;;;;;;;;;;;;;;;;;;;;;;;;;;;;;;;;;;;;;;;;;;;;;;;;;;;;;;;;;;;;;;;;;;;;;;;;;;;;;;;;;;;;;;;;;;;;;;;;;;;;;;;;;;;;;;;;;;;;;;;;;;;;;;;;;;;;;;;;37.45;;;15.31;;;;;;;47.24;;;;;;;;;;;;;