Year;CITATION;SAMPLE NAME;UNIQUE_ID;LOCATION;LOCATION COMMENT;LATITUDE (MIN.);LONGITUDE (MIN.);LATITUDE (MAX.);LONGITUDE (MAX.);ELEVATION (MIN.);ELEVATION (MAX.);SAMPLING TECHNIQUE;DRILLING DEPTH (MIN.);DRILLING DEPTH (MAX.);LAND/SEA (SAMPLING);ROCK TYPE;ROCK NAME;ROCK TEXTURE;SAMPLE COMMENT;AGE (MIN.);AGE (MAX.);GEOLOGICAL AGE;GEOLOGICAL AGE PREFIX;ERUPTION YEAR;ALTERATION;ALTERATION TYPE;TYPE OF MATERIAL;MINERAL / COMPONENT;SPOT (MINERAL);CRYSTAL;RIM / CORE (MINERAL GRAINS);GRAIN SIZE;PRIMARY/SECONDARY;INCLUSION TYPE;SPOT (INCLUSION);MINERAL (INCLUSION);RIM / CORE (INCLUSION);HOSTMINERAL (INCLUSION);HEATING;HEATING TEMPERATURE (?C);SIO2(WT%);TIO2(WT%);AL2O3(WT%);CR2O3(WT%);V2O3(WT%);V2O5(WT%);FE2O3T(WT%);FE2O3(WT%);FEOT(WT%);FEO(WT%);CAO(WT%);MGO(WT%);MNO(WT%);BAO(WT%);SRO(WT%);NIO(WT%);ZNO(WT%);COO(WT%);K2O(WT%);;;;NA2O(WT%);;;;P2O5(WT%);H2O(WT%);H2OP(WT%);H2OM(WT%);CO2(WT%);F(WT%);CL(WT%);CL2(WT%);SO3(WT%);S(WT%);LOI(WT%);O(WT%);SI(WT%);AL(WT%);TI(WT%);FE(WT%);MG(WT%);MN(WT%);CA(WT%);K(WT%): altern. values or methods;;;;NA(WT%);CR(WT%);NI(WT%);HE(CCMSTP/G);HE3(CCMSTP/G);HE4(CCMSTP/G): altern. values or methods;;;;LI(PPM);BE(PPM);B(PPM);F(PPM);NE20(CCMSTP/G);NE22(CCMSTP/G);P(PPM);S(PPM);CL(PPM);AR36(CCMSTP/G);AR40(CCMSTP/G);AR40(MOL/G): altern. values or methods;;;;AR40(PPB);K(PPM);SC(PPM): altern. values or methods;;;;;;TI(PPM);V(PPM): altern. values or methods;;;;CR(PPM): altern. values or methods;;;;MN(PPM);FE(PPM);CO(PPM): altern. values or methods;;;;;;NI(PPM): altern. values or methods;;;;;;CU(PPM): altern. values or methods;;;;ZN(PPM): altern. values or methods;;;;GA(PPM): altern. values or methods;;;;GE(PPM);AS(PPM);KR84(CCMSTP/G);RB(PPM): altern. values or methods;;;;SR(PPM): altern. values or methods;;;;Y(PPM): altern. values or methods;;;;ZR(PPM): altern. values or methods;;;;NB(PPM): altern. values or methods;;;;MO(PPM);RU(PPB);RH(PPB);PD(PPB);IN(PPM);SN(PPM);SB(PPM);XE132(CCMSTP/G);CS(PPM);BA(PPM): altern. values or methods;;;;LA(PPM): altern. values or methods;;;;CE(PPM): altern. values or methods;;;;PR(PPM): altern. values or methods;;;;ND(PPM): altern. values or methods;;;;SM(PPM): altern. values or methods;;;;EU(PPM): altern. values or methods;;;;GD(PPM);TB(PPM): altern. values or methods;;;;DY(PPM);HO(PPM);ER(PPM);TM(PPM);YB(PPM): altern. values or methods;;;;LU(PPM);HF(PPM): altern. values or methods;;;;TA(PPM);W(PPM);RE(PPB): altern. values or methods;;;;RE(PPT);OS(PPB): altern. values or methods;;;;OS(PPT);IR(PPB);PT(PPB);AU(PPB);HG(PPB);TL(PPM);PB(PPM): altern. values or methods;;;;PB210_ACT(DPM/G);TH(PPM): altern. values or methods;;;;TH(PPB);U(PPM): altern. values or methods;;;;U(PPB);CO2(PPM);H2O(PPM);ND143_ND144;ND148_ND144;SM147_ND144;SR87_SR86;RB87_SR86;PB206_PB204: altern. values or methods;;;;PB206_PB207;PB206_PB208;PB207_PB204: altern. values or methods;;;;PB207_PB206;PB208_PB204: altern. values or methods;;;;PB208_PB206;OS187_OS186;OS187_OS188: altern. values or methods;;;;RE187_OS188: altern. values or methods;;;;HF176_HF177;HE3_HE4;HE3_HE4(R/R(A)): altern. values or methods;;;;HE4_HE3: altern. values or methods;;;;;;HE4_HE3(R/R(A)): altern. values or methods;;;;AR38_AR36;AR40_AR36;NE20_NE22;NE21_NE22;XE129_XE132;PB206_U238;PB207_U235;PB210_U238;TH232_U238;U238_PB204;D13C(VS SMOW);D17O(VS VSMOW);D18O(PER MIL);D18O(VS PDB);D18O(VS SMOW);D18O(VS VSMOW);D34S(VS CDT);D44_40CA(VS SRM915A);D56FE(VS IRMM-014);DD(VS SMOW);ALBITE(MOL%);ACMITE(MOL%);ANORTHITE(MOL%);ENSTATITE(MOL%);FAYALITE(MOL%);FORSTERITE(MOL%);FERROSILITE(MOL%);HEMATITE(MOL%);LARNITE(MOL%);ORTHOCLASE(MOL%);PSEUDOBROOKITE(MOL%);TEPHROITE(MOL%);ULVOSPINEL(MOL%);WOLLASTONITE(MOL%);AGE(KA);AGE(MA): altern. values or methods;;;;;;;;AGE_PB207_PB206(MA);AGE_PB207_U235(MA);AGE_PB206_U238(MA);
1958;[2709] WEST W. D. (1958);samp. L;;MASCARENE ISLANDS INCL. REUNION / MAURITIUS;;-20.33;57.5;-20.33;57.5;;;OUTCROP;;;SUBAERIAL;VOLCANIC ROCK;ANKARAMITE;;FLOW;;;;;;;;WHOLE ROCK;;;;;;;;;;;;;;43.32;2.02;9.11;;;;;4.94;;8.42;9.28;17.02;;;;;;;0.86;WET;;;1.86;WET;;;0.34;;2;1.16;;;;;;;;;;;;;;;;;;;;;;;;;;;;;;;;;;;;;;;;;;;;;;;;;;;;;;;;;;;;;;;;;;;;;;;;;;;;;;;;;;;;;;;;;;;;;;;;;;;;;;;;;;;;;;;;;;;;;;;;;;;;;;;;;;;;;;;;;;;;;;;;;;;;;;;;;;;;;;;;;;;;;;;;;;;;;;;;;;;;;;;;;;;;;;;;;;;;;;;;;;;;;;;;;;;;;;;;;;;;;;;;;;;;;;;;;;;;;;;;;;;;;;;;;;;;;;;;;;;;;;;;;;;;;;;;;;;;;;;;;;;;;;;;;;;
1958;[2709] WEST W. D. (1958);samp. 283;;DECCAN / NORTHERN DECCAN;SAURASHTRA AREA;23;72;23;72;;;OUTCROP;;;SUBAERIAL;VOLCANIC ROCK;ANKARAMITE;;FLOW;;;;;;;;MINERAL / COMPONENT (INCL. GROUNDMASS);OLIVINE;;;;;PRIMARY;;;;;;;;39.7;;0.91;;;;;;;10.39;1.07;47.2;;;;;;;;;;;;;;;;;;;;;;;;;;;;;;;;;;;;;;;;;;;;;;;;;;;;;;;;;;;;;;;;;;;;;;;;;;;;;;;;;;;;;;;;;;;;;;;;;;;;;;;;;;;;;;;;;;;;;;;;;;;;;;;;;;;;;;;;;;;;;;;;;;;;;;;;;;;;;;;;;;;;;;;;;;;;;;;;;;;;;;;;;;;;;;;;;;;;;;;;;;;;;;;;;;;;;;;;;;;;;;;;;;;;;;;;;;;;;;;;;;;;;;;;;;;;;;;;;;;;;;;;;;;;;;;;;;;;;;;;;;;;;;;;;;;;;;;;;;;;;;;;;;;;;
1958;[2709] WEST W. D. (1958);samp. 283;;DECCAN / NORTHERN DECCAN;SAURASHTRA AREA;23;72;23;72;;;OUTCROP;;;SUBAERIAL;VOLCANIC ROCK;ANKARAMITE;;FLOW;;;;;;;;MINERAL / COMPONENT (INCL. GROUNDMASS);CLINOPYROXENE;;;;;PRIMARY;;;;;;;;50.89;;3.52;;;;;;;4.99;22.09;18.34;;;;;;;;;;;;;;;;;;;;;;;;;;;;;;;;;;;;;;;;;;;;;;;;;;;;;;;;;;;;;;;;;;;;;;;;;;;;;;;;;;;;;;;;;;;;;;;;;;;;;;;;;;;;;;;;;;;;;;;;;;;;;;;;;;;;;;;;;;;;;;;;;;;;;;;;;;;;;;;;;;;;;;;;;;;;;;;;;;;;;;;;;;;;;;;;;;;;;;;;;;;;;;;;;;;;;;;;;;;;;;;;;;;;;;;;;;;;;;;;;;;;;;;;;;;;;;;;;;;;;;;;;;;;;;;;;;;;;;;;;;;;;;;;;;;;;;;;;;;;;;;;;;;;;
1964;[2744] CHATTERJEE S. C. (1964);samp. 2;;DECCAN / NORTHERN DECCAN;PAVAGAD HILL, 25 MILES NORTHEAST OF BARODA, ABOVE BHADRAKALI SPUR;22.45;73.5;22.5;73.57;;;OUTCROP;;;SUBAERIAL;VOLCANIC ROCK;ANKARAMITE;;BASAL FLOW;;;;;;;;WHOLE ROCK;;;;;;;;;;;;;;44.56;2.26;11.25;;;;;4.8;;7.55;12.11;13.4;0.19;;;;;;0.58;WET;;;0.97;WET;;;0.28;;0.22;1.02;;;;;;;;;;;;;;;;;;;;;;;;;;;;;;;;;;;;;;;;;;;;;;;;;;;;;;;;;;;;;;;;;;;;;;;;;;;;;;;;;;;;;;;;;;;;;;;;;;;;;;;;;;;;;;;;;;;;;;;;;;;;;;;;;;;;;;;;;;;;;;;;;;;;;;;;;;;;;;;;;;;;;;;;;;;;;;;;;;;;;;;;;;;;;;;;;;;;;;;;;;;;;;;;;;;;;;;;;;;;;;;;;;;;;;;;;;;;;;;;;;;;;;;;;;;;;;;;;;;;;;;;;;;;;;;;;;;;;;;;;;;;;;;;;;;
1958;[2745] SUKHESWALA R. N. (1958);samp. 18;;DECCAN / SOUTHERN DECCAN;BOMBAY ISLAND;19.03;72.92;19.03;72.92;;;OUTCROP;;;SUBAERIAL;VOLCANIC ROCK;ANKARAMITE;;;;;CENOZOIC;;;;;WHOLE ROCK;;;;;;;;;;;;;;45.29;2.9;11.09;;;;;1.66;;9.65;11.06;16.11;;;;;;;0.76;WET;;;1.48;WET;;;;;;;;;;;;;;;;;;;;;;;;;;;;;;;;;;;;;;;;;;;;;;;;;;;;;;;;;;;;;;;;;;;;;;;;;;;;;;;;;;;;;;;;;;;;;;;;;;;;;;;;;;;;;;;;;;;;;;;;;;;;;;;;;;;;;;;;;;;;;;;;;;;;;;;;;;;;;;;;;;;;;;;;;;;;;;;;;;;;;;;;;;;;;;;;;;;;;;;;;;;;;;;;;;;;;;;;;;;;;;;;;;;;;;;;;;;;;;;;;;;;;;;;;;;;;;;;;;;;;;;;;;;;;;;;;;;;;;;;;;;;;;;;;;;;;;;;;
1958;[2745] SUKHESWALA R. N. (1958);samp. 21;;DECCAN / SOUTHERN DECCAN;BOMBAY ISLAND;19.03;72.92;19.03;72.92;;;OUTCROP;;;SUBAERIAL;VOLCANIC ROCK;ANKARAMITE;;;;;CENOZOIC;;;;;WHOLE ROCK;;;;;;;;;;;;;;43.85;3.05;9.95;;;;;2.8;;9.63;13.08;13.36;1.71;;;;;;0.48;WET;;;1.85;WET;;;0.24;;;;;;;;;;;;;;;;;;;;;;;;;;;;;;;;;;;;;;;;;;;;;;;;;;;;;;;;;;;;;;;;;;;;;;;;;;;;;;;;;;;;;;;;;;;;;;;;;;;;;;;;;;;;;;;;;;;;;;;;;;;;;;;;;;;;;;;;;;;;;;;;;;;;;;;;;;;;;;;;;;;;;;;;;;;;;;;;;;;;;;;;;;;;;;;;;;;;;;;;;;;;;;;;;;;;;;;;;;;;;;;;;;;;;;;;;;;;;;;;;;;;;;;;;;;;;;;;;;;;;;;;;;;;;;;;;;;;;;;;;;;;;;;;;;;;;;
1979;[2773] HAWKESWORTH C. J. (1979);samp. 380;38204;LESSER ANTILLES / LESSER ANTILLES / GRENADA / MOUNT ST. CATHERINE;;12.2;-61.7;12.2;-61.7;;;OUTCROP;;;SUBAERIAL;VOLCANIC ROCK;ANKARAMITE;;;500000;2000000;PLEISTOCENE;;;;;WHOLE ROCK;;;;;;;;;;;;;;;;;;;;;;;;;;;;;;;;;;;;;;;;;;;;;;;;;;;;;;;;;;;;;;;;;;;;;;;;;;;;;;;;;;;;;;;;;;;;;;;;;;;;;;;;;;;;;;;;;;;;;;;;;;;;;;;;;;;;;;;;;;;;;;;;;;;;;;;;;;;;;;;;;;;;;;18.3;MS_ID;;;41.5;MS_ID;;;;;;;24.3;MS_ID;;;5.51;MS_ID;;;1.72;MS_ID;;;5.14;;;;;4.34;;2.42;;2.16;MS_ID;;;;;;;;;;;;;;;;;;;;;;;;;;;;;;;;;;;;;;;;;;0.51297;;;0.70467;;;;;;;;;;;;;;;;;;;;;;;;;;;;;;;;;;;;;;;;;;;;;;;;;;;;;;;;;;;;;;;;;;;;;;;;;;;;;;;;;;;;;;;;;
1979;[2773] HAWKESWORTH C. J. (1979);samp. 333;;LESSER ANTILLES / LESSER ANTILLES / GRENADA / MOUNT ST. CATHERINE;;12.2;-61.7;12.2;-61.7;;;OUTCROP;;;SUBAERIAL;VOLCANIC ROCK;ANKARAMITE;;;500000;2000000;PLEISTOCENE;;;;;WHOLE ROCK;;;;;;;;;;;;;;;;;;;;;;;;;;;;;;;;;;;;;;;;;;;;;;;;;;;;;;;;;;;;;;;;;;;;;;;;;;;;;;;;;;;;;;;;;;;;;;;;;;;;;;;;;;;;;;;;;;;;;;;;;;;;;;;;;;;;;;;;;;;;;;;;;;;;;;;;;;;;;;;;;;;;;;;;;;;;;;;;;;;;;;;;;;;;;;;;;;;;;;;;;;;;;;;;;;;;;;;;;;;;;;;;;;;;;;;;;;;;;;;;;;;;;0.70501;;;;;;;;;;;;;;;;;;;;;;;;;;;;;;;;;;;;;;;;;;;;;;;;;;;;;;;;;;;;;;;;;;;;;;;;;;;;;;;;;;;;;;;;;
1979;[2773] HAWKESWORTH C. J. (1979);samp. 225B;38206;LESSER ANTILLES / LESSER ANTILLES / GRENADA / MOUNT ST. CATHERINE;;12.2;-61.7;12.2;-61.7;;;OUTCROP;;;SUBAERIAL;VOLCANIC ROCK;ANKARAMITE;;;500000;2000000;PLEISTOCENE;;;;;WHOLE ROCK;;;;;;;;;;;;;;;;;;;;;;;;;;;;;;;;;;;;;;;;;;;;;;;;;;;;;;;;;;;;;;;;;;;;;;;;;;;;;;;;;;;;;;;;;;;;;;;;;;;;;;;;;;;;;;;;;;;;;;;;;;;;;;;;;;;;;;;;;;;;;;;;;;;;;;;;;;;;;;;;;;;;;;17.6;MS_ID;;;41.2;MS_ID;;;;;;;22.4;MS_ID;;;4.72;MS_ID;;;1.46;MS_ID;;;4.22;;;;;3.41;;1.82;;1.56;MS_ID;;;;;;;;;;;;;;;;;;;;;;;;;;;;;;;;;;;;;;;;;;0.51308;;;0.70441;;;;;;;;;;;;;;;;;;;;;;;;;;;;;;;;;;;;;;;;;;;;;;;;;;;;;;;;;;;;;;;;;;;;;;;;;;;;;;;;;;;;;;;;;
1979;[2773] HAWKESWORTH C. J. (1979);samp. 230;38207;LESSER ANTILLES / LESSER ANTILLES / GRENADA / MOUNT ST. CATHERINE;;12.2;-61.7;12.2;-61.7;;;OUTCROP;;;SUBAERIAL;VOLCANIC ROCK;ANKARAMITE;;;500000;2000000;PLEISTOCENE;;;;;WHOLE ROCK;;;;;;;;;;;;;;;;;;;;;;;;;;;;;;;;;;;;;;;;;;;;;;;;;;;;;;;;;;;;;;;;;;;;;;;;;;;;;;;;;;;;;;;;;;;;;;;;;;;;;;;;;;;;;;;;;;;;;;;;;;;;;;;;;;;;;;;;;;;;;;;;;;;;;;;;;;;;;;;;;;;;;;;;;;;;;;;;;;;;;;;;;;;;;;;;;;;;;;;;;;;;;;;;;;;;;;;;;;;;;;;;;;;;;;;;;;;;;;;;;;;;;0.70461;;;;;;;;;;;;;;;;;;;;;;;;;;;;;;;;;;;;;;;;;;;;;;;;;;;;;;;;;;;;;;;;;;;;;;;;;;;;;;;;;;;;;;;;;
1979;[2773] HAWKESWORTH C. J. (1979);samp. 237;;LESSER ANTILLES / LESSER ANTILLES / GRENADA / MOUNT GRANBY;FEDON^S CAMP;12;-61.5;12.25;-61.75;;;OUTCROP;;;SUBAERIAL;VOLCANIC ROCK;ANKARAMITE;;;2000000;5000000;PLIOCENE-PLEISTOCENE;;;;;WHOLE ROCK;;;;;;;;;;;;;;;;;;;;;;;;;;;;;;;;;;;;;;;;;;;;;;;;;;;;;;;;;;;;;;;;;;;;;;;;;;;;;;;;;;;;;;;;;;;;;;;;;;;;;;;;;;;;;;;;;;;;;;;;;;;;;;;;;;;;;;;;;;;;;;;;;;;;;;;;;;;;;;;;;;;;;;;;;;;;;;;;;;;;;;;;;;;;;;;;;;;;;;;;;;;;;;;;;;;;;;;;;;;;;;;;;;;;;;;;;;;;;;;;;;;;;0.70452;;;;;;;;;;;;;;;;;;;;;;;;;;;;;;;;;;;;;;;;;;;;;;;;;;;;;;;;;;;;;;;;;;;;;;;;;;;;;;;;;;;;;;;;;
1979;[2773] HAWKESWORTH C. J. (1979);samp. 471;;LESSER ANTILLES / LESSER ANTILLES / GRENADA / MOUNT GRANBY;FEDON^S CAMP;12;-61.5;12.25;-61.75;;;OUTCROP;;;SUBAERIAL;VOLCANIC ROCK;ANKARAMITE;;;2000000;5000000;PLIOCENE-PLEISTOCENE;;;;;WHOLE ROCK;;;;;;;;;;;;;;;;;;;;;;;;;;;;;;;;;;;;;;;;;;;;;;;;;;;;;;;;;;;;;;;;;;;;;;;;;;;;;;;;;;;;;;;;;;;;;;;;;;;;;;;;;;;;;;;;;;;;;;;;;;;;;;;;;;;;;;;;;;;;;;;;;;;;;;;;;;;;;;;;;;;;;;19.5;MS_ID;;;39.2;MS_ID;;;;;;;23.9;MS_ID;;;5.36;MS_ID;;;1.6;MS_ID;;;5.12;;;;;4.33;;2.42;;2.1;MS_ID;;;;;;;;;;;;;;;;;;;;;;;;;;;;;;;;;;;;;;;;;;0.51295;;;0.70477;;;;;;;;;;;;;;;;;;;;;;;;;;;;;;;;;;;;;;;;;;;;;;;;;;;;;;;;;;;;;;;;;;;;;;;;;;;;;;;;;;;;;;;;;
1979;[2773] HAWKESWORTH C. J. (1979);samp. 487A;38226;LESSER ANTILLES / LESSER ANTILLES / GRENADA / MOUNT GRANBY;FEDON^S CAMP;12;-61.5;12.25;-61.75;;;OUTCROP;;;SUBAERIAL;VOLCANIC ROCK;ANKARAMITE;;;1000000;3000000;PLIOCENE-PLEISTOCENE;;;;;WHOLE ROCK;;;;;;;;;;;;;;;;;;;;;;;;;;;;;;;;;;;;;;;;;;;;;;;;;;;;;;;;;;;;;;;;;;;;;;;;;;;;;;;;;;;;;;;;;;;;;;;;;;;;;;;;;;;;;;;;;;;;;;;;;;;;;;;;;;;;;;;;;;;;;;;;;;;;;;;;;;;;;;;;;;;;;;;;;;;;;;;;;;;;;;;;;;;;;;;;;;;;;;;;;;;;;;;;;;;;;;;;;;;;;;;;;;;;;;;;;;;;;;;;;;;;;0.70456;;;;;;;;;;;;;;;;;;;;;;;;;;;;;;;;;;;;;;;;;;;;;;;;;;;;;;;;;;;;;;;;;;;;;;;;;;;;;;;;;;;;;;;;;
1979;[2773] HAWKESWORTH C. J. (1979);samp. 239;38227;LESSER ANTILLES / LESSER ANTILLES / GRENADA / MOUNT GRANBY;FEDON^S CAMP;12;-61.5;12.25;-61.75;;;OUTCROP;;;SUBAERIAL;VOLCANIC ROCK;ANKARAMITE;;;1000000;3000000;PLIOCENE-PLEISTOCENE;;;;;WHOLE ROCK;;;;;;;;;;;;;;;;;;;;;;;;;;;;;;;;;;;;;;;;;;;;;;;;;;;;;;;;;;;;;;;;;;;;;;;;;;;;;;;;;;;;;;;;;;;;;;;;;;;;;;;;;;;;;;;;;;;;;;;;;;;;;;;;;;;;;;;;;;;;;;;;;;;;;;;;;;;;;;;;;;;;;;;;;;33.9;MS_ID;;;;;;;21.8;MS_ID;;;5.28;MS_ID;;;1.45;MS_ID;;;4.27;;;;;3.44;;1.91;;1.53;MS_ID;;;;;;;;;;;;;;;;;;;;;;;;;;;;;;;;;;;;;;;;;;0.51304;;;0.70448;;;;;;;;;;;;;;;;;;;;;;;;;;;;;;;;;;;;;;;;;;;;;;;;;;;;;;;;;;;;;;;;;;;;;;;;;;;;;;;;;;;;;;;;;
1979;[2773] HAWKESWORTH C. J. (1979);samp. 406;;LESSER ANTILLES / LESSER ANTILLES / GRENADA / MOUNT GRANBY;FEDON^S CAMP;12;-61.5;12.25;-61.75;;;OUTCROP;;;SUBAERIAL;VOLCANIC ROCK;ANKARAMITE;;;2000000;5000000;PLIOCENE-PLEISTOCENE;;;;;WHOLE ROCK;;;;;;;;;;;;;;;;;;;;;;;;;;;;;;;;;;;;;;;;;;;;;;;;;;;;;;;;;;;;;;;;;;;;;;;;;;;;;;;;;;;;;;;;;;;;;;;;;;;;;;;;;;;;;;;;;;;;;;;;;;;;;;;;;;;;;;;;;;;;;;;;;;;;;;;;;;;;;;;;;;;;;;;;;;;;;;;;;;;;;;;;;;;;;;;;;;;;;;;;;;;;;;;;;;;;;;;;;;;;;;;;;;;;;;;;;;;;;;;;;;;;;0.70474;;;;;;;;;;;;;;;;;;;;;;;;;;;;;;;;;;;;;;;;;;;;;;;;;;;;;;;;;;;;;;;;;;;;;;;;;;;;;;;;;;;;;;;;;
1979;[2773] HAWKESWORTH C. J. (1979);samp. 297A;;LESSER ANTILLES / LESSER ANTILLES / GRENADA / MOUNT GRANBY;FEDON^S CAMP;12;-61.5;12.25;-61.75;;;OUTCROP;;;SUBAERIAL;VOLCANIC ROCK;ANKARAMITE;;;2000000;5000000;PLIOCENE-PLEISTOCENE;;;;;WHOLE ROCK;;;;;;;;;;;;;;;;;;;;;;;;;;;;;;;;;;;;;;;;;;;;;;;;;;;;;;;;;;;;;;;;;;;;;;;;;;;;;;;;;;;;;;;;;;;;;;;;;;;;;;;;;;;;;;;;;;;;;;;;;;;;;;;;;;;;;;;;;;;;;;;;;;;;;;;;;;;;;;;;;;;;;;;;;;;;;;;;;;;;;;;;;;;;;;;;;;;;;;;;;;;;;;;;;;;;;;;;;;;;;;;;;;;;;;;;;;;;;;;;;;;;;0.70478;;;;;;;;;;;;;;;;;;;;;;;;;;;;;;;;;;;;;;;;;;;;;;;;;;;;;;;;;;;;;;;;;;;;;;;;;;;;;;;;;;;;;;;;;
1979;[2773] HAWKESWORTH C. J. (1979);samp. 454;38236;LESSER ANTILLES / LESSER ANTILLES / GRENADA / MOUNT MORITZ;MT. MAITLAND;12;-61.5;12.25;-61.75;;;OUTCROP;;;SUBAERIAL;VOLCANIC ROCK;ANKARAMITE;;;7000000;14000000;MIOCENE;;;;;WHOLE ROCK;;;;;;;;;;;;;;;;;;;;;;;;;;;;;;;;;;;;;;;;;;;;;;;;;;;;;;;;;;;;;;;;;;;;;;;;;;;;;;;;;;;;;;;;;;;;;;;;;;;;;;;;;;;;;;;;;;;;;;;;;;;;;;;;;;;;;;;;;;;;;;;;;;;;;;;;;;;;;;;;;;;;;;8.19;MS_ID;;;20.8;MS_ID;;;;;;;14.5;MS_ID;;;3.64;MS_ID;;;1.18;MS_ID;;;3.66;;;;;3.4;;1.95;;1.76;MS_ID;;;;;;;;;;;;;;;;;;;;;;;;;;;;;;;;;;;;;;;;;;0.51306;;;0.70435;;;;;;;;;;;;;;;;;;;;;;;;;;;;;;;;;;;;;;;;;;;;;;;;;;;;;;;;;;;;;;;;;;;;;;;;;;;;;;;;;;;;;;;;;
1979;[2773] HAWKESWORTH C. J. (1979);samp. 450;38237;LESSER ANTILLES / LESSER ANTILLES / GRENADA / MOUNT MORITZ;MT. MAITLAND;12;-61.5;12.25;-61.75;;;OUTCROP;;;SUBAERIAL;VOLCANIC ROCK;ANKARAMITE;;;7000000;14000000;MIOCENE;;;;;WHOLE ROCK;;;;;;;;;;;;;;;;;;;;;;;;;;;;;;;;;;;;;;;;;;;;;;;;;;;;;;;;;;;;;;;;;;;;;;;;;;;;;;;;;;;;;;;;;;;;;;;;;;;;;;;;;;;;;;;;;;;;;;;;;;;;;;;;;;;;;;;;;;;;;;;;;;;;;;;;;;;;;;;;;;;;;;8.59;MS_ID;;;20.9;MS_ID;;;;;;;14.6;MS_ID;;;3.61;MS_ID;;;1.19;MS_ID;;;3.71;;;;;3.43;;1.97;;1.77;MS_ID;;;;;;;;;;;;;;;;;;;;;;;;;;;;;;;;;;;;;;;;;;0.51306;;;0.70447;;;;;;;;;;;;;;;;;;;;;;;;;;;;;;;;;;;;;;;;;;;;;;;;;;;;;;;;;;;;;;;;;;;;;;;;;;;;;;;;;;;;;;;;;
1979;[2773] HAWKESWORTH C. J. (1979);samp. 479;;LESSER ANTILLES / LESSER ANTILLES / GRENADA / MOUNT MORITZ;MT. MAITLAND;12;-61.5;12.25;-61.75;;;OUTCROP;;;SUBAERIAL;VOLCANIC ROCK;ANKARAMITE;;;7000000;14000000;MIOCENE;;;;;WHOLE ROCK;;;;;;;;;;;;;;;;;;;;;;;;;;;;;;;;;;;;;;;;;;;;;;;;;;;;;;;;;;;;;;;;;;;;;;;;;;;;;;;;;;;;;;;;;;;;;;;;;;;;;;;;;;;;;;;;;;;;;;;;;;;;;;;;;;;;;;;;;;;;;;;;;;;;;;;;;;;;;;;;;;;;;;;;;;;;;;;;;;;;;;;;;;;;;;;;;;;;;;;;;;;;;;;;;;;;;;;;;;;;;;;;;;;;;;;;;;;;;;;;;;;;;0.7044;;;;;;;;;;;;;;;;;;;;;;;;;;;;;;;;;;;;;;;;;;;;;;;;;;;;;;;;;;;;;;;;;;;;;;;;;;;;;;;;;;;;;;;;;
1979;[2773] HAWKESWORTH C. J. (1979);samp. 358;38239;LESSER ANTILLES / LESSER ANTILLES / GRENADA / C-SERIES;;12;-61.5;12.25;-61.75;;;OUTCROP;;;SUBAERIAL;VOLCANIC ROCK;ANKARAMITE;;;20000000;20000000;MIOCENE;;;;;WHOLE ROCK;;;;;;;;;;;;;;;;;;;;;;;;;;;;;;;;;;;;;;;;;;;;;;;;;;;;;;;;;;;;;;;;;;;;;;;;;;;;;;;;;;;;;;;;;;;;;;;;;;;;;;;;;;;;;;;;;;;;;;;;;;;;;;;;;;;;;;;;;;;;;;;;;;;;;;;;;;;;;;;;;;;;;;;;;;;;;;;;;;;;;;;;;;;;;;;;;;;;;;;;;;;;;;;;;;;;;;;;;;;;;;;;;;;;;;;;;;;;;;;;;;0.513;;;0.70394;;;;;;;;;;;;;;;;;;;;;;;;;;;;;;;;;;;;;;;;;;;;;;;;;;;;;;;;;;;;;;;;;;;;;;;;;;;;;;;;;;;;;;;;;
1979;[2773] HAWKESWORTH C. J. (1979);samp. 39;;LESSER ANTILLES / LESSER ANTILLES / GRENADA / C-SERIES;;12;-61.5;12.25;-61.75;;;OUTCROP;;;SUBAERIAL;VOLCANIC ROCK;ANKARAMITE;;;20000000;20000000;MIOCENE;;;;;WHOLE ROCK;;;;;;;;;;;;;;;;;;;;;;;;;;;;;;;;;;;;;;;;;;;;;;;;;;;;;;;;;;;;;;;;;;;;;;;;;;;;;;;;;;;;;;;;;;;;;;;;;;;;;;;;;;;;;;;;;;;;;;;;;;;;;;;;;;;;;;;;;;;;;;;;;;;;;;;;;;;;;;;;;;;;;;;;;;;;;;;;;;;;;;;;;;;;;;;;;;;;;;;;;;;;;;;;;;;;;;;;;;;;;;;;;;;;;;;;;;;;;;;;;;;;;0.70425;;;;;;;;;;;;;;;;;;;;;;;;;;;;;;;;;;;;;;;;;;;;;;;;;;;;;;;;;;;;;;;;;;;;;;;;;;;;;;;;;;;;;;;;;
1979;[2773] HAWKESWORTH C. J. (1979);samp. 360;;LESSER ANTILLES / LESSER ANTILLES / GRENADA / C-SERIES;;12;-61.5;12.25;-61.75;;;OUTCROP;;;SUBAERIAL;VOLCANIC ROCK;ANKARAMITE;;;20000000;20000000;MIOCENE;;;;;WHOLE ROCK;;;;;;;;;;;;;;;;;;;;;;;;;;;;;;;;;;;;;;;;;;;;;;;;;;;;;;;;;;;;;;;;;;;;;;;;;;;;;;;;;;;;;;;;;;;;;;;;;;;;;;;;;;;;;;;;;;;;;;;;;;;;;;;;;;;;;;;;;;;;;;;;;;;;;;;;;;;;;;;;;;;;;;18.2;MS_ID;;;40.5;MS_ID;;;;;;;21.4;MS_ID;;;4.74;MS_ID;;;1.43;MS_ID;;;4.27;;;;;3.46;;1.85;;1.59;MS_ID;;;;;;;;;;;;;;;;;;;;;;;;;;;;;;;;;;;;;;;;;;0.51298;;;0.70414;;;;;;;;;;;;;;;;;;;;;;;;;;;;;;;;;;;;;;;;;;;;;;;;;;;;;;;;;;;;;;;;;;;;;;;;;;;;;;;;;;;;;;;;;
1979;[2773] HAWKESWORTH C. J. (1979);samp. 169;38242;LESSER ANTILLES / LESSER ANTILLES / GRENADA / C-SERIES;;12;-61.5;12.25;-61.75;;;OUTCROP;;;SUBAERIAL;VOLCANIC ROCK;ANKARAMITE;;;20000000;20000000;MIOCENE;;;;;WHOLE ROCK;;;;;;;;;;;;;;;;;;;;;;;;;;;;;;;;;;;;;;;;;;;;;;;;;;;;;;;;;;;;;;;;;;;;;;;;;;;;;;;;;;;;;;;;;;;;;;;;;;;;;;;;;;;;;;;;;;;;;;;;;;;;;;;;;;;;;;;;;;;;;;;;;;;;;;;;;;;;;;;;;;;;;;27.5;MS_ID;;;63.5;MS_ID;;;;;;;34;MS_ID;;;6.8;MS_ID;;;1.87;MS_ID;;;5.52;;;;;3.98;;2;;1.7;MS_ID;;;;;;;;;;;;;;;;;;;;;;;;;;;;;;;;;;;;;;;;;;0.51302;;;0.70424;;;;;;;;;;;;;;;;;;;;;;;;;;;;;;;;;;;;;;;;;;;;;;;;;;;;;;;;;;;;;;;;;;;;;;;;;;;;;;;;;;;;;;;;;
1964;[2792] IWASAKI B. (1964);samp. C-76;3514;HAWAIIAN ISLANDS / HAWAII / MAUNA KEA / POST-SHIELD STAGE / UPPER HAMAKUA SERIES;LAUPAHOEHOE GULCH;20;-155.25;20;-155.25;;;OUTCROP;;;SUBAERIAL;VOLCANIC ROCK;ANKARAMITE;;;;;;;;;;WHOLE ROCK;;;;;;;;;;;;;;;;;;;;;;;;;;;;;;;;;;;;;;;;;;;;;;0.01;;;;;;;;;;;;;;;;;;;;;;;;;;;;;;;;;;;;;;;;;;;;;;;;;;;;;;;;;;;;;;;;;;;;;;;;;;;;;;;;;;;;;;;;;;;;;;;;;;;;;;;;;;;;;;;;;;;;;;;;;;;;;;;;;;;;;;;;;;;;;;;;;;;;;;;;;;;;;;;;;;;;;;;;;;;;;;;;;;;;;;;;;;;;;;;;;;;;;;;;;;;;;;;;;;;;;;;;;;;;;;;;;;;;;;;;;;;;;;;;;;;;;;;;;;;;;;;;;;;;;;;;;;;;;;;;;;;;;;;;;;;;;;;;
1964;[2792] IWASAKI B. (1964);samp. C-71;3517;HAWAIIAN ISLANDS / HAWAII / MAUNA KEA / POST-SHIELD STAGE / UPPER HAMAKUA SERIES;POPOO GULCH;20;-155.25;20;-155.25;;;OUTCROP;;;SUBAERIAL;VOLCANIC ROCK;ANKARAMITE;;;;;;;;;;WHOLE ROCK;;;;;;;;;;;;;;;;;;;;;;;;;;;;;;;;;;;;;;;;;;;;;;0.011;;;;;;;;;;;;;;;;;;;;;;;;;;;;;;;;;;;;;;;;;;;;;;;;;;;;;;;;;;;;;;;;;;;;;;;;;;;;;;;;;;;;;;;;;;;;;;;;;;;;;;;;;;;;;;;;;;;;;;;;;;;;;;;;;;;;;;;;;;;;;;;;;;;;;;;;;;;;;;;;;;;;;;;;;;;;;;;;;;;;;;;;;;;;;;;;;;;;;;;;;;;;;;;;;;;;;;;;;;;;;;;;;;;;;;;;;;;;;;;;;;;;;;;;;;;;;;;;;;;;;;;;;;;;;;;;;;;;;;;;;;;;;;;;
1964;[2792] IWASAKI B. (1964);samp. C-67;3518;HAWAIIAN ISLANDS / HAWAII / MAUNA KEA / POST-SHIELD STAGE / UPPER HAMAKUA SERIES;NEAR HIILAWE FALLS;20;-155.25;20;-155.25;;;OUTCROP;;;SUBAERIAL;VOLCANIC ROCK;ANKARAMITE;;;;;;;;;;WHOLE ROCK;;;;;;;;;;;;;;;;;;;;;;;;;;;;;;;;;;;;;;;;;;;;;;0.01;;;;;;;;;;;;;;;;;;;;;;;;;;;;;;;;;;;;;;;;;;;;;;;;;;;;;;;;;;;;;;;;;;;;;;;;;;;;;;;;;;;;;;;;;;;;;;;;;;;;;;;;;;;;;;;;;;;;;;;;;;;;;;;;;;;;;;;;;;;;;;;;;;;;;;;;;;;;;;;;;;;;;;;;;;;;;;;;;;;;;;;;;;;;;;;;;;;;;;;;;;;;;;;;;;;;;;;;;;;;;;;;;;;;;;;;;;;;;;;;;;;;;;;;;;;;;;;;;;;;;;;;;;;;;;;;;;;;;;;;;;;;;;;;
1970;[3081] PHILPOTTS J. A. (1970);samp. HHP-66-19;34956;HAWAIIAN ISLANDS / HAWAII;;19.5;-155.5;19.5;-155.5;;;OUTCROP;;;SUBAERIAL;VOLCANIC ROCK;ANKARAMITE;;OCEANITIC;;;;;;;;MINERAL / COMPONENT (INCL. GROUNDMASS);GROUNDMASS;;;;;PRIMARY;;;;;;;;;;;;;;;;;;;;;;;;;;;;;;;;;;;;;;;;;;;;;;;;;;;;;;;;;;;;;;;;;;;;;;;;;;;;;;;;;;6530;;;;;;;;;;;;;;;;;;;;;;;;;;;;;;;;;;;;;;;;;;;;;14.3;MS_ID;;;557;MS_ID;;;;;;;;;;;;;;;;;;;;;;;;221;MS_ID;;;;;;;;;;;;;;;;;;;;;;;;;;;;;;;;;;;;;;;;;;;;;;;;;;;;;;;;;;;;;;;;;;;;;;;;;;;;;;;;;;;;;;;;;;;;;;;;;;;;;;;;;;;;;;;;;;;;;;;;;;;;;;;;;;;;;;;;;;;;;;;;;;;;;;;;;;;;;;;;;;;;;;;;;;;