Year;CITATION;SAMPLE NAME;UNIQUE_ID;LOCATION;LOCATION COMMENT;LATITUDE (MIN.);LONGITUDE (MIN.);LATITUDE (MAX.);LONGITUDE (MAX.);ELEVATION (MIN.);ELEVATION (MAX.);SAMPLING TECHNIQUE;DRILLING DEPTH (MIN.);DRILLING DEPTH (MAX.);LAND/SEA (SAMPLING);ROCK TYPE;ROCK NAME;ROCK TEXTURE;SAMPLE COMMENT;AGE (MIN.);AGE (MAX.);GEOLOGICAL AGE;GEOLOGICAL AGE PREFIX;ERUPTION YEAR;ALTERATION;ALTERATION TYPE;TYPE OF MATERIAL;MINERAL / COMPONENT;SPOT (MINERAL);CRYSTAL;RIM / CORE (MINERAL GRAINS);GRAIN SIZE;PRIMARY/SECONDARY;INCLUSION TYPE;SPOT (INCLUSION);MINERAL (INCLUSION);RIM / CORE (INCLUSION);HOSTMINERAL (INCLUSION);HEATING;HEATING TEMPERATURE (?C);SIO2(WT%);TIO2(WT%);AL2O3(WT%);CR2O3(WT%);V2O3(WT%);V2O5(WT%);FE2O3T(WT%);FE2O3(WT%);FEOT(WT%);FEO(WT%);CAO(WT%);MGO(WT%);MNO(WT%);BAO(WT%);SRO(WT%);NIO(WT%);ZNO(WT%);COO(WT%);K2O(WT%);;;;NA2O(WT%);;;;P2O5(WT%);H2O(WT%);H2OP(WT%);H2OM(WT%);CO2(WT%);F(WT%);CL(WT%);CL2(WT%);SO3(WT%);S(WT%);LOI(WT%);O(WT%);SI(WT%);AL(WT%);TI(WT%);FE(WT%);MG(WT%);MN(WT%);CA(WT%);K(WT%): altern. values or methods;;;;NA(WT%);CR(WT%);NI(WT%);HE(CCMSTP/G);HE3(CCMSTP/G);HE4(CCMSTP/G): altern. values or methods;;;;LI(PPM);BE(PPM);B(PPM);F(PPM);NE20(CCMSTP/G);NE22(CCMSTP/G);P(PPM);S(PPM);CL(PPM);AR36(CCMSTP/G);AR40(CCMSTP/G);AR40(MOL/G): altern. values or methods;;;;AR40(PPB);K(PPM);SC(PPM): altern. values or methods;;;;;;TI(PPM);V(PPM): altern. values or methods;;;;CR(PPM): altern. values or methods;;;;MN(PPM);FE(PPM);CO(PPM): altern. values or methods;;;;;;NI(PPM): altern. values or methods;;;;;;CU(PPM): altern. values or methods;;;;ZN(PPM): altern. values or methods;;;;GA(PPM): altern. values or methods;;;;GE(PPM);AS(PPM);KR84(CCMSTP/G);RB(PPM): altern. values or methods;;;;SR(PPM): altern. values or methods;;;;Y(PPM): altern. values or methods;;;;ZR(PPM): altern. values or methods;;;;NB(PPM): altern. values or methods;;;;MO(PPM);RU(PPB);RH(PPB);PD(PPB);IN(PPM);SN(PPM);SB(PPM);XE132(CCMSTP/G);CS(PPM);BA(PPM): altern. values or methods;;;;LA(PPM): altern. values or methods;;;;CE(PPM): altern. values or methods;;;;PR(PPM): altern. values or methods;;;;ND(PPM): altern. values or methods;;;;SM(PPM): altern. values or methods;;;;EU(PPM): altern. values or methods;;;;GD(PPM);TB(PPM): altern. values or methods;;;;DY(PPM);HO(PPM);ER(PPM);TM(PPM);YB(PPM): altern. values or methods;;;;LU(PPM);HF(PPM): altern. values or methods;;;;TA(PPM);W(PPM);RE(PPB): altern. values or methods;;;;RE(PPT);OS(PPB): altern. values or methods;;;;OS(PPT);IR(PPB);PT(PPB);AU(PPB);HG(PPB);TL(PPM);PB(PPM): altern. values or methods;;;;PB210_ACT(DPM/G);TH(PPM): altern. values or methods;;;;TH(PPB);U(PPM): altern. values or methods;;;;U(PPB);CO2(PPM);H2O(PPM);ND143_ND144;ND148_ND144;SM147_ND144;SR87_SR86;RB87_SR86;PB206_PB204: altern. values or methods;;;;PB206_PB207;PB206_PB208;PB207_PB204: altern. values or methods;;;;PB207_PB206;PB208_PB204: altern. values or methods;;;;PB208_PB206;OS187_OS186;OS187_OS188: altern. values or methods;;;;RE187_OS188: altern. values or methods;;;;HF176_HF177;HE3_HE4;HE3_HE4(R/R(A)): altern. values or methods;;;;HE4_HE3: altern. values or methods;;;;;;HE4_HE3(R/R(A)): altern. values or methods;;;;AR38_AR36;AR40_AR36;NE20_NE22;NE21_NE22;XE129_XE132;PB206_U238;PB207_U235;PB210_U238;TH232_U238;U238_PB204;D13C(VS SMOW);D17O(VS VSMOW);D18O(PER MIL);D18O(VS PDB);D18O(VS SMOW);D18O(VS VSMOW);D34S(VS CDT);D44_40CA(VS SRM915A);D56FE(VS IRMM-014);DD(VS SMOW);ALBITE(MOL%);ACMITE(MOL%);ANORTHITE(MOL%);ENSTATITE(MOL%);FAYALITE(MOL%);FORSTERITE(MOL%);FERROSILITE(MOL%);HEMATITE(MOL%);LARNITE(MOL%);ORTHOCLASE(MOL%);PSEUDOBROOKITE(MOL%);TEPHROITE(MOL%);ULVOSPINEL(MOL%);WOLLASTONITE(MOL%);AGE(KA);AGE(MA): altern. values or methods;;;;;;;;AGE_PB207_PB206(MA);AGE_PB207_U235(MA);AGE_PB206_U238(MA);
1975;[12651] LIETZ J. (1975);samp. P4;;CANARY ISLANDS / GRAN CANARIA;EAST SIDE OF ^LOMO GRANDE^ ABOVE ROAD TENOYA - CARDONES;28;-15.6;28;-15.6;170;170;OUTCROP;;;SUBAERIAL;VOLCANIC ROCK;ANKARAMITE;;;;;PLIOCENE;;;;;WHOLE ROCK;;;;;;;;;;;;;;44;3.9;14.5;;;;;7;;5.2;10.9;5.5;0.18;;;;;;1.4;NOT;;;3.9;NOT;;;0.67;2.5;;;;;;;;;;;;;;;;;;;;;;;;;;;;;;;;;;;;;;;;;;;;;;;;;;;;;;;;;;;;;;;;;;;;;;;;;;;;;;;;;;;;;;;;;;;;;;;;;;;;;;;;;;;;;;;;;;;;;;;;;;;;;;;;;;;;;;;;;;;;;;;;;;;;;;;;;;;;;;;;;;;;;;;;;;;;;;;;;;;;;;;;;;;;;;;;;;;;;;;;;;;;;;;;;;;;;;;;;;;;;;;;;;;;;;;;;;;;;;;;;;;;;;;;;;;;;;;;;;;;;;;;;;;;;;;;;;;;;;;;;;;;;;;;;;;;;
2008;[12763] HAASE K. M.(2008)  [GeoReM [3776] ];samp. EG0211;;EUROPEAN OROGENIC BELT - CENOZOIC/QUATERNARY / CZECH REPUBLIC / BOHEMIAN MASSIF;JAUERNICK AT OPEN PIT BERZDORF  ;51.083;14.917;51.083;14.917;;;OUTCROP;;;SUBAERIAL;VOLCANIC ROCK;ANKARAMITE;;;;;CENOZOIC;;;;;WHOLE ROCK;;;;;;;;;;;;;;44.38;2.31;12.61;;;;11.64;;;;11.26;12.53;0.18;;;;;;1.41;XRF;;;2.52;XRF;;;0.58;;;;;;;;;;1.36;;;;;;;;;;;;;;;;;;;;;;7.1;;;;;;;;;;;;;;;;;28.5;ICPMS;;;;;;299;ICPMS;;;697;ICPMS;;;;;55.4;ICPMS;;;;;273;ICPMS;;;;;70.6;ICPMS;;;102;ICPMS;;;20.49;ICPMS;;;;;;34.74;ICPMS;;;908;ICPMS;;;23.65;ICPMS;;;329.2;ICPMS;;;88.6;ICPMS;;;3.35;;;;;1.25;0.14;;0.43;674;ICPMS;;;56.7;ICPMS;;;104;ICPMS;;;11.5;ICPMS;;;41.9;ICPMS;;;7.46;ICPMS;;;2.26;ICPMS;;;6.2;0.9;ICPMS;;;4.6;0.83;2.13;0.28;1.73;ICPMS;;;0.25;6.1;ICPMS;;;4.37;1.21;;;;;;;;;;;;;;;0.06;3.96;ICPMS;;;;6.98;ICPMS;;;;1.87;ICPMS;;;;;;;;;;;;;;;;;;;;;;;;;;;;;;;;;;;;;;;;;;;;;;;;;;;;;;;;;;;;;;;;;;;;;;;;;;;;;;;;;;;;;;;;;;;;;;;;;;
2003;[12924] KOPPERS A. A. P. (2003);samp. 144-874B-24R4, 23-25 (WOD-2);96464;RALIK SEAMOUNT GROUP / WODEJEBATO GUYOT / SITE 874;HOLE 874B;12.0038;164.9398;12.0038;164.9398;-1386;-1386;DRILL HOLE ;;;SUBAQUATIC;VOLCANIC ROCK;ANKARAMITE;;LEACHED;;;MESOZOIC;;;;;MINERAL / COMPONENT (INCL. GROUNDMASS);PLAGIOCLASE;;;;;PRIMARY;;;;;;;;;;;;;;;;;;;;;;;;;;;;;;;;;;;;;;;;;;;;;;;;;;;;;;;;;;;;;;;;;;;;;;;;;;;;;;;;;;;;;;;;;;;;;;;;;;;;;;;;;;;;;;;;;;;;;;;;;;;;;;;;;;;;;;;;;;;;;;;;;;;;;;;;;;;;;;;;;;;;;;;;;;;;;;;;;;;;;;;;;;;;;;;;;;;;;;;;;;;;;;;;;;;;;;;;;;;;;;;;;;;;;;;;;;;;;;;;;;;;;;;;;;;;;;;;;;;;;;;;;;;;;;;;;;;;;;;;;;;;;;;;;;;;;;;;;;;;;;;;;;;;;;;;;;;;;78.6;AR-AR;78.6;AR-AR;78.1;AR-AR;;;;;;
2003;[12924] KOPPERS A. A. P. (2003);samp. 144-874B-24R4, 106-111;;RALIK SEAMOUNT GROUP / WODEJEBATO GUYOT / SITE 874;HOLE 874B;12.0038;164.9398;12.0038;164.9398;-1386;-1386;DRILL HOLE ;;;SUBAQUATIC;VOLCANIC ROCK;ANKARAMITE;;LEACHED;;;MESOZOIC;;;;;WHOLE ROCK;;;;;;;;;;;;;;;;;;;;;;;;;;;;;;;;;;;;;;;;;;;;;;;;;;;;;;;;;;;;;;;;;;;;;;;;;;;;;;;;;;;;;;;;;;;;;;;;;;;;;;;;;;;;;;;;;;;;;;;;;;;;;;;;;;;;;;;;;;;;;;;;;;;;;;;;;;;;;;;;;;;;;;;;;;;;;;;;;;;;;;;;;;;;;;;;;;;;;;;;;;;;;;;;;;;;;;;;;;;;;;;;;;;;;;;;;;;;;;;;;;;;;;;;;;;;;;;;;;;;;;;;;;;;;;;;;;;;;;;;;;;;;;;;;;;;;;;;;;;;;;;;;;;;;;;;;;;;;;;;;;;85.6;AR-AR;84;AR-AR;;;;;;;;
2003;[12924] KOPPERS A. A. P. (2003);samp. TUNES 6 24-24 (JEN-4);235376;WAKE SEAMOUNT GROUP / JENNINGS GUYOT;;20.87;156.17;20.87;156.17;-2600;-2600;DREDGE;;;SUBAQUATIC;VOLCANIC ROCK;ANKARAMITE;;;;;MESOZOIC;;;;;MINERAL / COMPONENT (INCL. GROUNDMASS);GROUNDMASS;;;;;PRIMARY;;;;;;;;;;;;;;;;;;;;;;;;;;;;;;;;;;;;;;;;;;;;;;;;;;;;;;;;;;;;;;;;;;;;;;;;;;;;;;;;;;;;;;;;;;;;;;;;;;;;;;;;;;;;;;;;;;;;;;;;;;;;;;;;;;;;;;;;;;;;;;;;;;;;;;;;;;;;;;;;;;;;;;;;;;;;;;;;;;;;;;;;;;;;;;;;;;;;;;;;;;;;;;;;;;;;;;;;;;;;;;;;;;;;;;;;;;;;;;;;;;;;;;;;;;;;;;;;;;;;;;;;;;;;;;;;;;;;;;;;;;;;;;;;;;;;;;;;;;;;;;;;;;;;;;;;;;;;;103.5;AR-AR;101.6;AR-AR;;;;;;;;
2003;[12924] KOPPERS A. A. P. (2003);samp. TUNES 6 23-8 (MAL-2);235248;WAKE SEAMOUNT GROUP / MALONEY GUYOT;;21.05;157.15;21.05;157.15;-2500;-2500;DREDGE;;;SUBAQUATIC;VOLCANIC ROCK;ANKARAMITE;;LEACHED;;;MESOZOIC;;;;;WHOLE ROCK;;;;;;;;;;;;;;;;;;;;;;;;;;;;;;;;;;;;;;;;;;;;;;;;;;;;;;;;;;;;;;;;;;;;;;;;;;;;;;;;;;;;;;;;;;;;;;;;;;;;;;;;;;;;;;;;;;;;;;;;;;;;;;;;;;;;;;;;;;;;;;;;;;;;;;;;;;;;;;;;;;;;;;;;;;;;;;;;;;;;;;;;;;;;;;;;;;;;;;;;;;;;;;;;;;;;;;;;;;;;;;;;;;;;;;;;;;;;;;;;;;;;;;;;;;;;;;;;;;;;;;;;;;;;;;;;;;;;;;;;;;;;;;;;;;;;;;;;;;;;;;;;;;;;;;;;;;;;;;;;;;;97.7;AR-AR;96.5;AR-AR;;;;;;;;
2003;[12924] KOPPERS A. A. P. (2003);samp. MW8805 RD-45-1 (LOO-2);;SOLITARY SEAMOUNTS / LOOK;;12.15;-166.15;12.15;-166.15;-2200;-2200;DREDGE;;;SUBAQUATIC;VOLCANIC ROCK;ANKARAMITE;;LEACHED;;;MESOZOIC;;;;;MINERAL / COMPONENT (INCL. GROUNDMASS);AMPHIBOLE;;;;;PRIMARY;;;;;;;;;;;;;;;;;;;;;;;;;;;;;;;;;;;;;;;;;;;;;;;;;;;;;;;;;;;;;;;;;;;;;;;;;;;;;;;;;;;;;;;;;;;;;;;;;;;;;;;;;;;;;;;;;;;;;;;;;;;;;;;;;;;;;;;;;;;;;;;;;;;;;;;;;;;;;;;;;;;;;;;;;;;;;;;;;;;;;;;;;;;;;;;;;;;;;;;;;;;;;;;;;;;;;;;;;;;;;;;;;;;;;;;;;;;;;;;;;;;;;;;;;;;;;;;;;;;;;;;;;;;;;;;;;;;;;;;;;;;;;;;;;;;;;;;;;;;;;;;;;;;;;;;;;;;;;140;AR-AR;;;;;;;;;;
2003;[12924] KOPPERS A. A. P. (2003);samp. TUNES 6 24-24 (JEN-4);235376;WAKE SEAMOUNT GROUP / JENNINGS GUYOT;;20.87;156.17;20.87;156.17;-2600;-2600;DREDGE;;;SUBAQUATIC;VOLCANIC ROCK;ANKARAMITE;;;;;MESOZOIC;;;;;MINERAL / COMPONENT (INCL. GROUNDMASS);CLINOPYROXENE;;;;;PRIMARY;;;;;;;;;;;;;;;;;;;;;;;;;;;;;;;;;;;;;;;;;;;;;;;;;;;;;;;;;;;;;;;;;;;;;;;;;;;;;;;;;;;;;;;;;;;;;;;;;;;;;;;;;;;;;;;;;;;;;;;;;;;;;;;;;;;17;TIMS_ID;;;;;;;;;;;;;;;;;;;;;;;;;;;;;;;;;;;;;;;;9.89;TIMS_ID;;;2.97;TIMS_ID;;;;;;;;;;;;;;;;;;;;;;;;;;;;;;;;;;;;;;;;;;;;;;;;;;;;;;;;6;;;0.512831;;0.181;0.703491;;;;;;;;;;;;;;;;;;;;;;;;;;;;;;;;;;;;;;;;;;;;;;;;;;;;;;;;;;;;;;;;;;;;;;;;;;;;;;;;;;;;;;;;;
2003;[12924] KOPPERS A. A. P. (2003);samp. MW8805 RD-45-1 (LOO-2);;SOLITARY SEAMOUNTS / LOOK;;12.15;-166.15;12.15;-166.15;-2200;-2200;DREDGE;;;SUBAQUATIC;VOLCANIC ROCK;ANKARAMITE;;LEACHED;;;MESOZOIC;;;;;MINERAL / COMPONENT (INCL. GROUNDMASS);AMPHIBOLE;;;;;PRIMARY;;;;;;;;;;;;;;;;;;;;;;;;;;;;;;;;;;;;;;;;;;;;;;;;;;;;;;;;;;;;;;;;;;;;;;;;;;;;;;;;;;;;;;;;;;;;;;;;;;;;;;;;;;;;;;;;;;;;;;;;;;;;;;;0.25;TIMS_ID;;;85.6;TIMS_ID;;;;;;;;;;;;;;;;;;;;;;;;;;;;;;;;;;;;;;;;13.07;TIMS_ID;;;3.82;TIMS_ID;;;;;;;;;;;;;;;;;;;;;;;;;;;;;;;;;;;;;;;;;;0.209;TIMS_ID;;;;;;;;;;;;;26.7;;;0.512872;;0.177;0.702875;0.008;19.897;MC_ICPMS;;;;;15.692;MC_ICPMS;;;;39.546;MC_ICPMS;;;;;;;;;;;;;;;;;;;;;;;;;;;;;;;;;;;;;;;;;;;;;;;;;;;;;;;;;;;;;;;;;;;;;;;;;;;
2003;[12924] KOPPERS A. A. P. (2003);samp. MW8805 RD-45-1 (LOO-2);;SOLITARY SEAMOUNTS / LOOK;;12.15;-166.15;12.15;-166.15;-2200;-2200;DREDGE;;;SUBAQUATIC;VOLCANIC ROCK;ANKARAMITE;;LEACHED;;;MESOZOIC;;;;;MINERAL / COMPONENT (INCL. GROUNDMASS);CLINOPYROXENE;;;;;PRIMARY;;;;;;;;56.29;1.7;17.49;;;;;11.97;;;10.36;3.93;0.05;0.05;;;;;1.62;XRF;;;1.72;INAA;;;0.01;;;;;;;;;;2.1;;;;;;;;;;;;;;;;;;;;;;;;;;;;;;;;;;;;;;;;;;;;;;241;NOT;;;50;NOT;;;;;19.1;NOT;;;;;;;;;;;54;NOT;;;43;NOT;;;;;;;;;;7;ICPMS;;;1040;ICPMS;;;10.9;NOT;;;125;NOT;;;56.2;NOT;;;4.6;;;;;3;4.14;;0.8;;;;;17;NOT;;;47.6;NOT;;;2.4;NOT;;;27.9;ICPMS;;;6.5;ICPMS;;;2.57;NOT;;;8.37;1.5;NOT;;;7.34;1.47;3.86;0.49;0.22;NOT;;;0.21;7.6;NOT;;;8.1;1;;;;;;;;;;;;;;;8.48;6;ICPMS;;;;;;;;0.5;;;;;98;;;0.512839;;0.142;0.702904;0.02;20.664;MC_ICPMS;;;;;15.707;MC_ICPMS;;;;40.369;MC_ICPMS;;;;;;;;;;;;;;;;;;;;;;;;;;;;;;;;;;;;;;;;;;;;;;;;;;;;;;;;;;;;;;;;;;;;;;;;;;;
2003;[12924] KOPPERS A. A. P. (2003);samp. TUNES 6 23-8 (MAL-2);235248;WAKE SEAMOUNT GROUP / MALONEY GUYOT;;21.05;157.15;21.05;157.15;-2500;-2500;DREDGE;;;SUBAQUATIC;VOLCANIC ROCK;ANKARAMITE;;LEACHED;;;MESOZOIC;;;;;WHOLE ROCK;;;;;;;;;;;;;;;;;;;;;7.15;;;7.87;;;0.03;;;;;;;;;3.93;INAA;;;;;;;;;;;;;;;;;;;;;;;;;;;;;;;;;;;;;;;;;;;;;;;;;;;;;;;;;;;35;NOT;;;506;NOT;;;;;34.4;NOT;;;;;53;NOT;;;;;;;;;43;NOT;;;;;;;;;;15;ICPMS;;;314;ICPMS;;;13.9;NOT;;;151;NOT;;;34.4;NOT;;;4.3;;;;;4;3.74;;1.03;;;;;8.8;NOT;;;20.5;NOT;;;2.6;NOT;;;11.7;ICPMS;;;2.9;ICPMS;;;1.11;NOT;;;9.62;1.7;NOT;;;8.29;1.75;4.5;0.6;0.05;NOT;;;0.15;3.7;NOT;;;4.3;0.7;;;;;;;;;;;;;;;0.16;7;ICPMS;;;;;;;;1.4;;;;;525;;;0.512843;;0.148;0.703245;0.134;20.597;MC_ICPMS;;;;;15.692;MC_ICPMS;;;;39.911;MC_ICPMS;;;;;;;;;;;;;;;;;;;;;;;;;;;;;;;;;;;;;;;;;;;;;;;;;;;;;;;;;;;;;;;;;;;;;;;;;;;
2003;[12924] KOPPERS A. A. P. (2003);samp. 144-874B-24R4, 23-25 (WOD-2);96464;RALIK SEAMOUNT GROUP / WODEJEBATO GUYOT / SITE 874;HOLE 874B;12.0038;164.9398;12.0038;164.9398;-1386;-1386;DRILL HOLE ;;;SUBAQUATIC;VOLCANIC ROCK;ANKARAMITE;;LEACHED;;;MESOZOIC;;;;;WHOLE ROCK;;;;;;;;;;;;;;;;;;;;;;;;;;;;;;;;;;;;;;;;;;;;;;;;;;;;;;;;;;;;;;;;;;;;;;;;;;;;;;;;;;;;;;;;;;;;;;;;;;;;;;;;;;;;;;;;;;;;;;;;;;;;;;;;;;;;;;;;;;;;;;;;;;;;;;;;;;;;;;;;;;;;;;;;;;;;;;;;;;;;;;;;;;;;;;;;;;;;;;;;;;;;;;;;;;;;;;;;;;;;;;;;;;;;;;;;;;;;;;;;;;0.512766;;;0.704722;0.153;19.491;MC_ICPMS;;;;;15.644;MC_ICPMS;;;;39.369;MC_ICPMS;;;;;;;;;;;;;;;;;;;;;;;;;;;;;;;;;;;;;;;;;;;;;;;;;;;;;;;;;;;;;;;;;;;;;;;;;;;
2003;[12924] KOPPERS A. A. P. (2003);samp. 144-874B-24R4, 23-25 (WOD-2);96464;RALIK SEAMOUNT GROUP / WODEJEBATO GUYOT / SITE 874;HOLE 874B;12.0038;164.9398;12.0038;164.9398;-1386;-1386;DRILL HOLE ;;;SUBAQUATIC;VOLCANIC ROCK;ANKARAMITE;;LEACHED;;;MESOZOIC;;;;;WHOLE ROCK;;;;;;;;;;;;;;;;;;;;;;;;;;;;;;;;;;;;;;;;;;;;;;;;;;;;;;;;;;;;;;;;;;;;;;;;;;;;;;;;;;;;;;;;;;;;;;;;;;;;;;;;;;;;;;;;;;;;;;;;;;;;;;;;;;;;;16;XRF;;;293;XRF;;;;;;;;;;;;;;;;;;;;;;;;;;;;;;;;;;;;;;;;7;XRF;;;;;;;;;;;;;;;;;;;;;;;;;;;;;;;;;;;;;;;;;;;;;;1.9;XRF;;;;;;;;3.5;;;;;;;;0.51277;;;0.704727;0.153;19.485;MC_ICPMS;;;;;15.65;MC_ICPMS;;;;39.412;MC_ICPMS;;;;;;;;;;;;;;;;;;;;;;;;;;;;;;;;;;;;;;;;;;;;;;;;;;;;;;;;;;;;;;;;;;;;;;;;;;;
2003;[12924] KOPPERS A. A. P. (2003);samp. 144-874B-24R4, 23-25 (WOD-2);96464;RALIK SEAMOUNT GROUP / WODEJEBATO GUYOT / SITE 874;HOLE 874B;12.0038;164.9398;12.0038;164.9398;-1386;-1386;DRILL HOLE ;;;SUBAQUATIC;VOLCANIC ROCK;ANKARAMITE;;LEACHED;;;MESOZOIC;;;;;WHOLE ROCK;;;;;;;;;;;;;;;;;;;;;;;;;;;0.02;;;;;;;;;;;;;;;;;;;;;;;;;;;;;;;;;;;;;;;;;;;;;;;;;;;;;;;;;;;;;;;;;;;;;122;NOT;;;1376;NOT;;;;;37;NOT;;;;;202;NOT;;;;;146;NOT;;;46;NOT;;;;;;;;;;16;NOT;;;767;NOT;;;28.2;NOT;;;181;NOT;;;45.2;NOT;;;;;;;;;;;;;;;;;;;;7;NOT;;;8;NOT;;;7;NOT;;;0.3;NOT;;;1.07;NOT;;;;;;;;;;;;;;;;0.02;2.2;NOT;;;1;2;;;;;;;;;;;;;;;;2;NOT;;;;3.5;NOT;;;;;;;;;;;;;;;;;;;;;;;;;;;;;;;;;;;;;;;;;;;;;;;;;;;;;;;;;;;;;;;;;;;;;;;;;;;;;;;;;;;;;;;;;;;;;;;;;;;;;;;
2003;[12924] KOPPERS A. A. P. (2003);samp. 144-874B-24R4, 23-25 (WOD-2)_UNLEACHED;;RALIK SEAMOUNT GROUP / WODEJEBATO GUYOT / SITE 874;HOLE 874B;12.0038;164.9398;12.0038;164.9398;-1386;-1386;DRILL HOLE ;;;SUBAQUATIC;VOLCANIC ROCK;ANKARAMITE;;UNLEACHED;;;MESOZOIC;;;;;WHOLE ROCK;;;;;;;;;;;;;;;;;;;;;;;;;;;0.02;;;;;;;;;;;;;;;;;;;;;;;;;;;;;;;;;;;;;;;;;;;;;;;;;;;;;;;;;;;;;;;;;;;;;188;NOT;;;875;NOT;;;;;63;NOT;;;;;311;NOT;;;;;12;NOT;;;92;NOT;;;;;;;;;;27;NOT;;;679;NOT;;;8.4;NOT;;;105;NOT;;;25.9;NOT;;;;;;;;;;;;;;;;5;NOT;;;45;NOT;;;;;;;23;NOT;;;5.5;NOT;;;2.04;NOT;;;;;;;;;;;;;;;;0.25;3.3;NOT;;;2;2;;;;;;;;;;;;;;;;4.7;NOT;;;;2.7;NOT;;;;0.1;NOT;;;;;;;;;;;;;;;;;;;;;;;;;;;;;;;;;;;;;;;;;;;;;;;;;;;;;;;;;;;;;;;;;;;;;;;;;;;;;;;;;;;;;;;;;;;;;;;;;;
1997;[13048] LAPIERRE H. (1997);samp. 88BL20;;CARIBBEAN-COLOMBIAN PLATEAU / DOMINICAN REPUBLIC / DUARTE COMPLEX;LOWER DUARTE COMPLEX, BASIMA PLAIN, VILLA ALTAGRACIA;18.7;-70.22;18.7;-70.22;;;OUTCROP;;;SUBAERIAL;VOLCANIC ROCK;ANKARAMITE;PORPHYRITIC;LAVA;;;;;;;;WHOLE ROCK;;;;;;;;;;;;;;45.53;2.23;8.82;;;;;;;;;15.9;;;;;;;;;;;;;;;;;;;;;;;;;;;;;;;;;;;;;;;;;;;;;;;;;;;;;;;;;;;;;;;;;;;;;;;;;;;1088.48;ICPMS;;;;;;;;;;;529.52;ICPMS;;;;;;;;;;;;;;;;;;;;0.26;ICPMS;;;160.24;ICPMS;;;20.76;ICPMS;;;120.41;ICPMS;;;13.2;ICPMS;;;;;;;;;;;;;;;;9.23;ICPMS;;;23.8;ICPMS;;;3.28;ICPMS;;;15.46;ICPMS;15.46;ICPMS;4.03;ICPMS;4.03;ICPMS;1.35;ICPMS;;;4.41;0.74;ICPMS;;;4.42;0.79;2.17;0.27;1.66;ICPMS;;;0.23;3.25;ICPMS;;;0.9;;;;;;;;;;;;;;;;;;;;;;0.95;ICPMS;;;;;;;;;;;0.512936;;0.1576;0.703399;0.0047;;;;;;;;;;;;;;;;;;;;;;;;;;;;;;;;;;;;;;;;;;;;;;;;;;;;;;;;;;;;;;;;;;;;;;;;;;;;;;;;;;;;;;;;
1997;[13048] LAPIERRE H. (1997);samp. 88BL29;;CARIBBEAN-COLOMBIAN PLATEAU / DOMINICAN REPUBLIC / DUARTE COMPLEX;LOWER DUARTE COMPLEX, PINALITO, JANICO;19.28;-70.77;19.28;-70.77;;;OUTCROP;;;SUBAERIAL;VOLCANIC ROCK;ANKARAMITE;PORPHYRITIC;LAVA;;;;;;;;WHOLE ROCK;;;;;;;;;;;;;;41.64;2.83;10.68;;;;;;;;;15.66;;;;;;;;;;;;;;;;;;;;;;;;;;;;;;;;;;;;;;;;;;;;;;;;;;;;;;;;;;;;;;;;;;;;;;;;;;;1581.42;ICPMS;;;;;;;;;;;732.72;ICPMS;;;;;;;;;;;;;;;;;;;;5.38;ICPMS;;;100.4;ICPMS;;;27.41;ICPMS;;;168.1;ICPMS;;;18.28;ICPMS;;;;;;;;;;;;;;;;14.45;ICPMS;;;36.33;ICPMS;;;4.96;ICPMS;;;23.57;ICPMS;23.57;ICPMS;6.02;ICPMS;6.02;ICPMS;2.07;ICPMS;;;6.76;1.05;ICPMS;;;5.91;1.09;2.88;0.39;2.13;ICPMS;;;0.28;4.66;ICPMS;;;1.13;;;;;;;;;;;;;;;;;;;;;;0.33;ICPMS;;;;;;;;;;;0.512907;;0.15442;0.703574;0.155;;;;;;;;;;;;;;;;;;;;;;;;;;;;;;;;;;;;;;;;;;;;;;;;;;;;;;;;;;;;;;;;;;;;;;;;;;;;;;;;;;;;;;;;
2009;[13151] HARLOU R. (2009);samp. 408624;;ICELAND / ICELAND;VESTFIRDIR;66;-24;66;-24;;;OUTCROP;;;SUBAERIAL;VOLCANIC ROCK;ANKARAMITE;;LAVA;;;;;;;;WHOLE ROCK;;;;;;;;;;;;;;;;;;;;;;;;;;;;;;;;;;;;;;;;;;;;;;;;;;;;;;;;;;;;;;;;;;;;;;;;;;;;;;;;;;;;;;;;;;;;;;;;;;;;;;;;;;;;;;;;;;;;;;;;;;;;;;;;;;;;;;;;;;;;;;;;;;;;;;;;;;;;;;;;;;;;;;;;;;;;;;;;;;;;;;;;;;;;;;;;;;;;;;;;;;;;;;;;;;;;;;;;;;;;;;;;;;;;;;;;;;;;;;;;;;;;;0.705866;;;;;;;;;;;;;;;;;;;;;;;;;;;;;;;;;;;;;;;;;;;;;;;;;;;;;;;;;;;;;;;;;;;;;;;;;;;;;;;;;;;;;;;;;
2009;[13151] HARLOU R. (2009);samp. 408624;;ICELAND / ICELAND;VESTFIRDIR;66;-24;66;-24;;;OUTCROP;;;SUBAERIAL;VOLCANIC ROCK;ANKARAMITE;;LAVA;;;;;;;;WHOLE ROCK;;;;;;;;;;;;;;;;;;;;;;;;;;;;;;;;;;;;;;;;;;;;;;;;;;;;;;;;;;;;;;;;;;;;;;;;;;;;;;;;;;;;;;;;;;;;;;;;;;;;;;;;;;;;;;;;;;;;;;;;;;;;;;;;;;;;;;;;;;;;;;;;;;;;;;;;;;;;;;;;;;;;;;;;;;;;;;;;;;;;;;;;;;;;;;;;;;;;;;;;;;;;;;;;;;;;;;;;;;;;;;;;;;;;;;;;;;;;;;;;;;;;;0.704877;;;;;;;;;;;;;;;;;;;;;;;;;;;;;;;;;;;;;;;;;;;;;;;;;;;;;;;;;;;;;;;;;;;;;;;;;;;;;;;;;;;;;;;;;
2009;[13151] HARLOU R. (2009);samp. 408624;;ICELAND / ICELAND;VESTFIRDIR;66;-24;66;-24;;;OUTCROP;;;SUBAERIAL;VOLCANIC ROCK;ANKARAMITE;;LAVA;;;;;;;;WHOLE ROCK;;;;;;;;;;;;;;;;;;;;;;;;;;;;;;;;;;;;;;;;;;;;;;;;;;;;;;;;;;;;;;;;;;;;;;;;;;;;;;;;;;;;;;;;;;;;;;;;;;;;;;;;;;;;;;;;;;;;;;;;;;;;;;;;;;;;;;;;;;;;;;;;;;;;;;;;;;;;;;;;;;;;;;;;;;;;;;;;;;;;;;;;;;;;;;;;;;;;;;;;;;;;;;;;;;;;;;;;;;;;;;;;;;;;;;;;;;;;;;;;;;;;;0.704874;;;;;;;;;;;;;;;;;;;;;;;;;;;;;;;;;;;;;;;;;;;;;;;;;;;;;;;;;;;;;;;;;;;;;;;;;;;;;;;;;;;;;;;;;
2009;[13151] HARLOU R. (2009);samp. 408624;;ICELAND / ICELAND;VESTFIRDIR;66;-24;66;-24;;;OUTCROP;;;SUBAERIAL;VOLCANIC ROCK;ANKARAMITE;;LAVA;;;;;;;;WHOLE ROCK;;;;;;;;;;;;;;;;;;;;;;;;;;;;;;;;;;;;;;;;;;;;;;;;;;;;;;;;;;;;;;;;;;;;;;;;;;;;;;;;;;;;;;;;;;;;;;;;;;;;;;;;;;;;;;;;;;;;;;;;;;;;;;;;;;;;;;;;;;;;;;;;;;;;;;;;;;;;;;;;;;;;;;;;;;;;;;;;;;;;;;;;;;;;;;;;;;;;;;;;;;;;;;;;;;;;;;;;;;;;;;;;;;;;;;;;;;;;;;;;;;;;;0.704469;;;;;;;;;;;;;;;;;;;;;;;;;;;;;;;;;;;;;;;;;;;;;;;;;;;;;;;;;;;;;;;;;;;;;;;;;;;;;;;;;;;;;;;;;
2009;[13151] HARLOU R. (2009);samp. 408624;;ICELAND / ICELAND;VESTFIRDIR;66;-24;66;-24;;;OUTCROP;;;SUBAERIAL;VOLCANIC ROCK;ANKARAMITE;;LAVA;;;;;;;;WHOLE ROCK;;;;;;;;;;;;;;;;;;;;;;;;;;;;;;;;;;;;;;;;;;;;;;;;;;;;;;;;;;;;;;;;;;;;;;;;;;;;;;;;;;;;;;;;;;;;;;;;;;;;;;;;;;;;;;;;;;;;;;;;;;;;;;;;;;;;;;;;;;;;;;;;;;;;;;;;;;;;;;;;;;;;;;;;;;;;;;;;;;;;;;;;;;;;;;;;;;;;;;;;;;;;;;;;;;;;;;;;;;;;;;;;;;;;;;;;;;;;;;;;;;;;;0.704385;;;;;;;;;;;;;;;;;;;;;;;;;;;;;;;;;;;;;;;;;;;;;;;;;;;;;;;;;;;;;;;;;;;;;;;;;;;;;;;;;;;;;;;;;
2009;[13151] HARLOU R. (2009);samp. 408624;;ICELAND / ICELAND;VESTFIRDIR;66;-24;66;-24;;;OUTCROP;;;SUBAERIAL;VOLCANIC ROCK;ANKARAMITE;;LAVA;;;;;;;;WHOLE ROCK;;;;;;;;;;;;;;;;;;;;;;;;;;;;;;;;;;;;;;;;;;;;;;;;;;;;;;;;;;;;;;;;;;;;;;;;;;;;;;;;;;;;;;;;;;;;;;;;;;;;;;;;;;;;;;;;;;;;;;;;;;;;;;;;;;;;;;;;;;;;;;;;;;;;;;;;;;;;;;;;;;;;;;;;;;;;;;;;;;;;;;;;;;;;;;;;;;;;;;;;;;;;;;;;;;;;;;;;;;;;;;;;;;;;;;;;;;;;;;;;;;;;;0.704818;;;;;;;;;;;;;;;;;;;;;;;;;;;;;;;;;;;;;;;;;;;;;;;;;;;;;;;;;;;;;;;;;;;;;;;;;;;;;;;;;;;;;;;;;
2009;[13151] HARLOU R. (2009);samp. 408624;;ICELAND / ICELAND;VESTFIRDIR;66;-24;66;-24;;;OUTCROP;;;SUBAERIAL;VOLCANIC ROCK;ANKARAMITE;;LAVA;;;;;;;;WHOLE ROCK;;;;;;;;;;;;;;;;;;;;;;;;;;;;;;;;;;;;;;;;;;;;;;;;;;;;;;;;;;;;;;;;;;;;;;;;;;;;;;;;;;;;;;;;;;;;;;;;;;;;;;;;;;;;;;;;;;;;;;;;;;;;;;;;;;;;;;;;;;;;;;;;;;;;;;;;;;;;;;;;;;;;;;;;;;;;;;;;;;;;;;;;;;;;;;;;;;;;;;;;;;;;;;;;;;;;;;;;;;;;;;;;;;;;;;;;;;;;;;;;;;;;;0.70363;;;;;;;;;;;;;;;;;;;;;;;;;;;;;;;;;;;;;;;;;;;;;;;;;;;;;;;;;;;;;;;;;;;;;;;;;;;;;;;;;;;;;;;;;