Year;CITATION;SAMPLE NAME;UNIQUE_ID;LOCATION;LOCATION COMMENT;LATITUDE (MIN.);LONGITUDE (MIN.);LATITUDE (MAX.);LONGITUDE (MAX.);ELEVATION (MIN.);ELEVATION (MAX.);SAMPLING TECHNIQUE;DRILLING DEPTH (MIN.);DRILLING DEPTH (MAX.);LAND/SEA (SAMPLING);ROCK TYPE;ROCK NAME;ROCK TEXTURE;SAMPLE COMMENT;AGE (MIN.);AGE (MAX.);GEOLOGICAL AGE;GEOLOGICAL AGE PREFIX;ERUPTION YEAR;ALTERATION;ALTERATION TYPE;TYPE OF MATERIAL;MINERAL / COMPONENT;SPOT (MINERAL);CRYSTAL;RIM / CORE (MINERAL GRAINS);GRAIN SIZE;PRIMARY/SECONDARY;INCLUSION TYPE;SPOT (INCLUSION);MINERAL (INCLUSION);RIM / CORE (INCLUSION);HOSTMINERAL (INCLUSION);HEATING;HEATING TEMPERATURE (?C);SIO2(WT%);TIO2(WT%);AL2O3(WT%);CR2O3(WT%);V2O3(WT%);V2O5(WT%);FE2O3T(WT%);FE2O3(WT%);FEOT(WT%);FEO(WT%);CAO(WT%);MGO(WT%);MNO(WT%);BAO(WT%);SRO(WT%);NIO(WT%);ZNO(WT%);COO(WT%);K2O(WT%);;;;NA2O(WT%);;;;P2O5(WT%);H2O(WT%);H2OP(WT%);H2OM(WT%);CO2(WT%);F(WT%);CL(WT%);CL2(WT%);SO3(WT%);S(WT%);LOI(WT%);O(WT%);SI(WT%);AL(WT%);TI(WT%);FE(WT%);MG(WT%);MN(WT%);CA(WT%);K(WT%): altern. values or methods;;;;NA(WT%);CR(WT%);NI(WT%);HE(CCMSTP/G);HE3(CCMSTP/G);HE4(CCMSTP/G): altern. values or methods;;;;LI(PPM);BE(PPM);B(PPM);F(PPM);NE20(CCMSTP/G);NE22(CCMSTP/G);P(PPM);S(PPM);CL(PPM);AR36(CCMSTP/G);AR40(CCMSTP/G);AR40(MOL/G): altern. values or methods;;;;AR40(PPB);K(PPM);SC(PPM): altern. values or methods;;;;;;TI(PPM);V(PPM): altern. values or methods;;;;CR(PPM): altern. values or methods;;;;MN(PPM);FE(PPM);CO(PPM): altern. values or methods;;;;;;NI(PPM): altern. values or methods;;;;;;CU(PPM): altern. values or methods;;;;ZN(PPM): altern. values or methods;;;;GA(PPM): altern. values or methods;;;;GE(PPM);AS(PPM);KR84(CCMSTP/G);RB(PPM): altern. values or methods;;;;SR(PPM): altern. values or methods;;;;Y(PPM): altern. values or methods;;;;ZR(PPM): altern. values or methods;;;;NB(PPM): altern. values or methods;;;;MO(PPM);RU(PPB);RH(PPB);PD(PPB);IN(PPM);SN(PPM);SB(PPM);XE132(CCMSTP/G);CS(PPM);BA(PPM): altern. values or methods;;;;LA(PPM): altern. values or methods;;;;CE(PPM): altern. values or methods;;;;PR(PPM): altern. values or methods;;;;ND(PPM): altern. values or methods;;;;SM(PPM): altern. values or methods;;;;EU(PPM): altern. values or methods;;;;GD(PPM);TB(PPM): altern. values or methods;;;;DY(PPM);HO(PPM);ER(PPM);TM(PPM);YB(PPM): altern. values or methods;;;;LU(PPM);HF(PPM): altern. values or methods;;;;TA(PPM);W(PPM);RE(PPB): altern. values or methods;;;;RE(PPT);OS(PPB): altern. values or methods;;;;OS(PPT);IR(PPB);PT(PPB);AU(PPB);HG(PPB);TL(PPM);PB(PPM): altern. values or methods;;;;PB210_ACT(DPM/G);TH(PPM): altern. values or methods;;;;TH(PPB);U(PPM): altern. values or methods;;;;U(PPB);CO2(PPM);H2O(PPM);ND143_ND144;ND148_ND144;SM147_ND144;SR87_SR86;RB87_SR86;PB206_PB204: altern. values or methods;;;;PB206_PB207;PB206_PB208;PB207_PB204: altern. values or methods;;;;PB207_PB206;PB208_PB204: altern. values or methods;;;;PB208_PB206;OS187_OS186;OS187_OS188: altern. values or methods;;;;RE187_OS188: altern. values or methods;;;;HF176_HF177;HE3_HE4;HE3_HE4(R/R(A)): altern. values or methods;;;;HE4_HE3: altern. values or methods;;;;;;HE4_HE3(R/R(A)): altern. values or methods;;;;AR38_AR36;AR40_AR36;NE20_NE22;NE21_NE22;XE129_XE132;PB206_U238;PB207_U235;PB210_U238;TH232_U238;U238_PB204;D13C(VS SMOW);D17O(VS VSMOW);D18O(PER MIL);D18O(VS PDB);D18O(VS SMOW);D18O(VS VSMOW);D34S(VS CDT);D44_40CA(VS SRM915A);D56FE(VS IRMM-014);DD(VS SMOW);ALBITE(MOL%);ACMITE(MOL%);ANORTHITE(MOL%);ENSTATITE(MOL%);FAYALITE(MOL%);FORSTERITE(MOL%);FERROSILITE(MOL%);HEMATITE(MOL%);LARNITE(MOL%);ORTHOCLASE(MOL%);PSEUDOBROOKITE(MOL%);TEPHROITE(MOL%);ULVOSPINEL(MOL%);WOLLASTONITE(MOL%);AGE(KA);AGE(MA): altern. values or methods;;;;;;;;AGE_PB207_PB206(MA);AGE_PB207_U235(MA);AGE_PB206_U238(MA);
1991;[40] FREY F. A. (1991);samp. LP-5;1883;HAWAIIAN ISLANDS / HAWAII / MAUNA KEA / POST-SHIELD STAGE / HAMAKUA SERIES;LAUPAHOEHOE GULCH;20;-155.25;20;-155.25;;;OUTCROP;;;SUBAERIAL;VOLCANIC ROCK;ANKARAMITE;;;;;;;;FRESH;;MINERAL / COMPONENT (INCL. GROUNDMASS);OLIVINE;LP-5_3C;MICROPHENOCRYST;CORE;0.3 MM;PRIMARY;;;;;;;;38.7;;;;;;;;24.3;;;36.6;;;;;;;;;;;;;;;;;;;;;;;;;;;;;;;;;;;;;;;;;;;;;;;;;;;;;;;;;;;;;;;;;;;;;;;;;;;;;;;;;;;;;;;;;;;;;;;;;;;;;;;;;;;;;;;;;;;;;;;;;;;;;;;;;;;;;;;;;;;;;;;;;;;;;;;;;;;;;;;;;;;;;;;;;;;;;;;;;;;;;;;;;;;;;;;;;;;;;;;;;;;;;;;;;;;;;;;;;;;;;;;;;;;;;;;;;;;;;;;;;;;;;;;;;;;;;;;;;;;;;;;;;;;;;;;;;;;;;;;;;;;;;;;;72.9;;;;;;;;;;;;;;;;;;;;;
1991;[40] FREY F. A. (1991);samp. LP-5;1883;HAWAIIAN ISLANDS / HAWAII / MAUNA KEA / POST-SHIELD STAGE / HAMAKUA SERIES;LAUPAHOEHOE GULCH;20;-155.25;20;-155.25;;;OUTCROP;;;SUBAERIAL;VOLCANIC ROCK;ANKARAMITE;;;;;;;;FRESH;;MINERAL / COMPONENT (INCL. GROUNDMASS);OLIVINE;LP-5_3R;MICROPHENOCRYST;RIM;0.3 MM;PRIMARY;;;;;;;;36.1;;;;;;;;29;;;25.2;;;;;;;;;;;;;;;;;;;;;;;;;;;;;;;;;;;;;;;;;;;;;;;;;;;;;;;;;;;;;;;;;;;;;;;;;;;;;;;;;;;;;;;;;;;;;;;;;;;;;;;;;;;;;;;;;;;;;;;;;;;;;;;;;;;;;;;;;;;;;;;;;;;;;;;;;;;;;;;;;;;;;;;;;;;;;;;;;;;;;;;;;;;;;;;;;;;;;;;;;;;;;;;;;;;;;;;;;;;;;;;;;;;;;;;;;;;;;;;;;;;;;;;;;;;;;;;;;;;;;;;;;;;;;;;;;;;;;;;;;;;;;;;;53.5;;;;;;;;;;;;;;;;;;;;;
1991;[40] FREY F. A. (1991);samp. MU-9;3750;HAWAIIAN ISLANDS / HAWAII / MAUNA KEA / POST-SHIELD STAGE / HAMAKUA SERIES;MAULUA GULCH;20;-155.25;20;-155.25;;;OUTCROP;;;SUBAERIAL;VOLCANIC ROCK;ANKARAMITE;;;;;;;;MODERATELY ALTERED;;MINERAL / COMPONENT (INCL. GROUNDMASS);CLINOPYROXENE;MU-9_1C;PHENOCRYST;CORE;0.75 MM;PRIMARY;;;;;;;;52;0.67;2.39;1.07;;;;;4.77;;21.35;17.13;;;;;;;;;;;0.24;EMP (EPMA);;;;;;;;;;;;;;;;;;;;;;;;;;;;;;;;;;;;;;;;;;;;;;;;;;;;;;;;;;;;;;;;;;;;;;;;;;;;;;;;;;;;;;;;;;;;;;;;;;;;;;;;;;;;;;;;;;;;;;;;;;;;;;;;;;;;;;;;;;;;;;;;;;;;;;;;;;;;;;;;;;;;;;;;;;;;;;;;;;;;;;;;;;;;;;;;;;;;;;;;;;;;;;;;;;;;;;;;;;;;;;;;;;;;;;;;;;;;;;;;;;;;;;;;;;;;;;;;;;;;;;;;;;;;;;;;;;48.7;;;7.6;;;;;;;43.7;;;;;;;;;;;;;
1991;[40] FREY F. A. (1991);samp. MU-9;3750;HAWAIIAN ISLANDS / HAWAII / MAUNA KEA / POST-SHIELD STAGE / HAMAKUA SERIES;MAULUA GULCH;20;-155.25;20;-155.25;;;OUTCROP;;;SUBAERIAL;VOLCANIC ROCK;ANKARAMITE;;;;;;;;MODERATELY ALTERED;;MINERAL / COMPONENT (INCL. GROUNDMASS);CLINOPYROXENE;MU-9_1R;PHENOCRYST;RIM;0.75 MM;PRIMARY;;;;;;;;52.23;0.69;2.63;1.17;;;;;4.65;;21.72;17.02;;;;;;;;;;;0.21;EMP (EPMA);;;;;;;;;;;;;;;;;;;;;;;;;;;;;;;;;;;;;;;;;;;;;;;;;;;;;;;;;;;;;;;;;;;;;;;;;;;;;;;;;;;;;;;;;;;;;;;;;;;;;;;;;;;;;;;;;;;;;;;;;;;;;;;;;;;;;;;;;;;;;;;;;;;;;;;;;;;;;;;;;;;;;;;;;;;;;;;;;;;;;;;;;;;;;;;;;;;;;;;;;;;;;;;;;;;;;;;;;;;;;;;;;;;;;;;;;;;;;;;;;;;;;;;;;;;;;;;;;;;;;;;;;;;;;;;;;;48.3;;;7.4;;;;;;;44.3;;;;;;;;;;;;;
1991;[40] FREY F. A. (1991);samp. MU-9;3750;HAWAIIAN ISLANDS / HAWAII / MAUNA KEA / POST-SHIELD STAGE / HAMAKUA SERIES;MAULUA GULCH;20;-155.25;20;-155.25;;;OUTCROP;;;SUBAERIAL;VOLCANIC ROCK;ANKARAMITE;;;;;;;;MODERATELY ALTERED;;MINERAL / COMPONENT (INCL. GROUNDMASS);CLINOPYROXENE;MU-9_2C;MICROPHENOCRYST;CORE;0.35 MM;PRIMARY;;;;;;;;52.09;0.73;2.52;0.93;;;;;5.01;;21.24;17.05;;;;;;;;;;;0.24;EMP (EPMA);;;;;;;;;;;;;;;;;;;;;;;;;;;;;;;;;;;;;;;;;;;;;;;;;;;;;;;;;;;;;;;;;;;;;;;;;;;;;;;;;;;;;;;;;;;;;;;;;;;;;;;;;;;;;;;;;;;;;;;;;;;;;;;;;;;;;;;;;;;;;;;;;;;;;;;;;;;;;;;;;;;;;;;;;;;;;;;;;;;;;;;;;;;;;;;;;;;;;;;;;;;;;;;;;;;;;;;;;;;;;;;;;;;;;;;;;;;;;;;;;;;;;;;;;;;;;;;;;;;;;;;;;;;;;;;;;;48.5;;;8;;;;;;;43.5;;;;;;;;;;;;;
1991;[40] FREY F. A. (1991);samp. LP-5;1883;HAWAIIAN ISLANDS / HAWAII / MAUNA KEA / POST-SHIELD STAGE / HAMAKUA SERIES;LAUPAHOEHOE GULCH;20;-155.25;20;-155.25;;;OUTCROP;;;SUBAERIAL;VOLCANIC ROCK;ANKARAMITE;;;;;;;;FRESH;;MINERAL / COMPONENT (INCL. GROUNDMASS);CLINOPYROXENE;LP-5_1C;PHENOCRYST;CORE;1.2 MM;PRIMARY;;;;;;;;52.04;0.65;2.5;1.1;;;;;4.83;;20.73;17.04;;;;;;;;;;;0.25;EMP (EPMA);;;;;;;;;;;;;;;;;;;;;;;;;;;;;;;;;;;;;;;;;;;;;;;;;;;;;;;;;;;;;;;;;;;;;;;;;;;;;;;;;;;;;;;;;;;;;;;;;;;;;;;;;;;;;;;;;;;;;;;;;;;;;;;;;;;;;;;;;;;;;;;;;;;;;;;;;;;;;;;;;;;;;;;;;;;;;;;;;;;;;;;;;;;;;;;;;;;;;;;;;;;;;;;;;;;;;;;;;;;;;;;;;;;;;;;;;;;;;;;;;;;;;;;;;;;;;;;;;;;;;;;;;;;;;;;;;;49.2;;;7.8;;;;;;;43;;;;;;;;;;;;;
1991;[40] FREY F. A. (1991);samp. LP-5;1883;HAWAIIAN ISLANDS / HAWAII / MAUNA KEA / POST-SHIELD STAGE / HAMAKUA SERIES;LAUPAHOEHOE GULCH;20;-155.25;20;-155.25;;;OUTCROP;;;SUBAERIAL;VOLCANIC ROCK;ANKARAMITE;;;;;;;;FRESH;;MINERAL / COMPONENT (INCL. GROUNDMASS);CLINOPYROXENE;LP-5_1R;PHENOCRYST;RIM;1.2 MM;PRIMARY;;;;;;;;52.14;0.82;2.78;1.44;;;;;4.9;;20.91;16.89;;;;;;;;;;;0.29;EMP (EPMA);;;;;;;;;;;;;;;;;;;;;;;;;;;;;;;;;;;;;;;;;;;;;;;;;;;;;;;;;;;;;;;;;;;;;;;;;;;;;;;;;;;;;;;;;;;;;;;;;;;;;;;;;;;;;;;;;;;;;;;;;;;;;;;;;;;;;;;;;;;;;;;;;;;;;;;;;;;;;;;;;;;;;;;;;;;;;;;;;;;;;;;;;;;;;;;;;;;;;;;;;;;;;;;;;;;;;;;;;;;;;;;;;;;;;;;;;;;;;;;;;;;;;;;;;;;;;;;;;;;;;;;;;;;;;;;;;;48.7;;;7.9;;;;;;;43.4;;;;;;;;;;;;;
1991;[40] FREY F. A. (1991);samp. LP-5;1883;HAWAIIAN ISLANDS / HAWAII / MAUNA KEA / POST-SHIELD STAGE / HAMAKUA SERIES;LAUPAHOEHOE GULCH;20;-155.25;20;-155.25;;;OUTCROP;;;SUBAERIAL;VOLCANIC ROCK;ANKARAMITE;;;;;;;;FRESH;;MINERAL / COMPONENT (INCL. GROUNDMASS);CLINOPYROXENE;LP-5_2C;PHENOCRYST;CORE;0.8 MM;PRIMARY;;;;;;;;50.9;1.18;2.68;0.28;;;;;8.29;;20.15;15.7;;;;;;;;;;;0.3;EMP (EPMA);;;;;;;;;;;;;;;;;;;;;;;;;;;;;;;;;;;;;;;;;;;;;;;;;;;;;;;;;;;;;;;;;;;;;;;;;;;;;;;;;;;;;;;;;;;;;;;;;;;;;;;;;;;;;;;;;;;;;;;;;;;;;;;;;;;;;;;;;;;;;;;;;;;;;;;;;;;;;;;;;;;;;;;;;;;;;;;;;;;;;;;;;;;;;;;;;;;;;;;;;;;;;;;;;;;;;;;;;;;;;;;;;;;;;;;;;;;;;;;;;;;;;;;;;;;;;;;;;;;;;;;;;;;;;;;;;;45.1;;;13.3;;;;;;;41.6;;;;;;;;;;;;;
1991;[40] FREY F. A. (1991);samp. LP-5;1883;HAWAIIAN ISLANDS / HAWAII / MAUNA KEA / POST-SHIELD STAGE / HAMAKUA SERIES;LAUPAHOEHOE GULCH;20;-155.25;20;-155.25;;;OUTCROP;;;SUBAERIAL;VOLCANIC ROCK;ANKARAMITE;;;;;;;;FRESH;;MINERAL / COMPONENT (INCL. GROUNDMASS);CLINOPYROXENE;LP-5_2R;PHENOCRYST;RIM;0.8 MM;PRIMARY;;;;;;;;48.89;1.92;4.5;0.45;;;;;8.82;;20.17;14.72;;;;;;;;;;;0.27;EMP (EPMA);;;;;;;;;;;;;;;;;;;;;;;;;;;;;;;;;;;;;;;;;;;;;;;;;;;;;;;;;;;;;;;;;;;;;;;;;;;;;;;;;;;;;;;;;;;;;;;;;;;;;;;;;;;;;;;;;;;;;;;;;;;;;;;;;;;;;;;;;;;;;;;;;;;;;;;;;;;;;;;;;;;;;;;;;;;;;;;;;;;;;;;;;;;;;;;;;;;;;;;;;;;;;;;;;;;;;;;;;;;;;;;;;;;;;;;;;;;;;;;;;;;;;;;;;;;;;;;;;;;;;;;;;;;;;;;;;;43.1;;;14.5;;;;;;;42.4;;;;;;;;;;;;;
1991;[40] FREY F. A. (1991);samp. LP-5;1883;HAWAIIAN ISLANDS / HAWAII / MAUNA KEA / POST-SHIELD STAGE / HAMAKUA SERIES;LAUPAHOEHOE GULCH;20;-155.25;20;-155.25;;;OUTCROP;;;SUBAERIAL;VOLCANIC ROCK;ANKARAMITE;;;;;;;;FRESH;;MINERAL / COMPONENT (INCL. GROUNDMASS);PLAGIOCLASE;LP-5_1C;PHENOCRYST;CORE;1.25 MM;PRIMARY;;;;;;;;47.75;;33.25;;;;;;0.55;;16.5;;;;;;;;0.07;EMP (EPMA);;;1.9;EMP (EPMA);;;;;;;;;;;;;;;;;;;;;;;;;;;;;;;;;;;;;;;;;;;;;;;;;;;;;;;;;;;;;;;;;;;;;;;;;;;;;;;;;;;;;;;;;;;;;;;;;;;;;;;;;;;;;;;;;;;;;;;;;;;;;;;;;;;;;;;;;;;;;;;;;;;;;;;;;;;;;;;;;;;;;;;;;;;;;;;;;;;;;;;;;;;;;;;;;;;;;;;;;;;;;;;;;;;;;;;;;;;;;;;;;;;;;;;;;;;;;;;;;;;;;;;;;;;;;;;;;;;;;;;;;;;;;;;;;82.4;;;;;;;;;;;;;;;;;;;;;;;;
1991;[40] FREY F. A. (1991);samp. LP-5;1883;HAWAIIAN ISLANDS / HAWAII / MAUNA KEA / POST-SHIELD STAGE / HAMAKUA SERIES;LAUPAHOEHOE GULCH;20;-155.25;20;-155.25;;;OUTCROP;;;SUBAERIAL;VOLCANIC ROCK;ANKARAMITE;;;;;;;;FRESH;;MINERAL / COMPONENT (INCL. GROUNDMASS);PLAGIOCLASE;LP-5_1R;PHENOCRYST;RIM;1.25 MM;PRIMARY;;;;;;;;53.4;;28.1;;;;;;1.3;;11.8;;;;;;;;0.3;EMP (EPMA);;;4.3;EMP (EPMA);;;;;;;;;;;;;;;;;;;;;;;;;;;;;;;;;;;;;;;;;;;;;;;;;;;;;;;;;;;;;;;;;;;;;;;;;;;;;;;;;;;;;;;;;;;;;;;;;;;;;;;;;;;;;;;;;;;;;;;;;;;;;;;;;;;;;;;;;;;;;;;;;;;;;;;;;;;;;;;;;;;;;;;;;;;;;;;;;;;;;;;;;;;;;;;;;;;;;;;;;;;;;;;;;;;;;;;;;;;;;;;;;;;;;;;;;;;;;;;;;;;;;;;;;;;;;;;;;;;;;;;;;;;;;;;;;59.2;;;;;;;;;;;;;;;;;;;;;;;;
1991;[40] FREY F. A. (1991);samp. LP-5;1883;HAWAIIAN ISLANDS / HAWAII / MAUNA KEA / POST-SHIELD STAGE / HAMAKUA SERIES;LAUPAHOEHOE GULCH;20;-155.25;20;-155.25;;;OUTCROP;;;SUBAERIAL;VOLCANIC ROCK;ANKARAMITE;;;;;;;;FRESH;;MINERAL / COMPONENT (INCL. GROUNDMASS);PLAGIOCLASE;LP-5_2C;MICROPHENOCRYST;CORE;0.5 MM;PRIMARY;;;;;;;;50.9;;30.6;;;;;;0.7;;13.75;;;;;;;;0.15;EMP (EPMA);;;3.1;EMP (EPMA);;;;;;;;;;;;;;;;;;;;;;;;;;;;;;;;;;;;;;;;;;;;;;;;;;;;;;;;;;;;;;;;;;;;;;;;;;;;;;;;;;;;;;;;;;;;;;;;;;;;;;;;;;;;;;;;;;;;;;;;;;;;;;;;;;;;;;;;;;;;;;;;;;;;;;;;;;;;;;;;;;;;;;;;;;;;;;;;;;;;;;;;;;;;;;;;;;;;;;;;;;;;;;;;;;;;;;;;;;;;;;;;;;;;;;;;;;;;;;;;;;;;;;;;;;;;;;;;;;;;;;;;;;;;;;;;;70.4;;;;;;;;;;;;;;;;;;;;;;;;
1991;[40] FREY F. A. (1991);samp. MU-9;3750;HAWAIIAN ISLANDS / HAWAII / MAUNA KEA / POST-SHIELD STAGE / HAMAKUA SERIES;MAULUA GULCH;20;-155.25;20;-155.25;;;OUTCROP;;;SUBAERIAL;VOLCANIC ROCK;ANKARAMITE;;;;;;;;MODERATELY ALTERED;;MINERAL / COMPONENT (INCL. GROUNDMASS);PLAGIOCLASE;LP-5_3C;XENOCRYST;CORE;0.4 MM;PRIMARY;;;;;;;;47.85;;33.25;;;;;;0.6;;16.35;;;;;;;;0.09;EMP (EPMA);;;2;EMP (EPMA);;;;;;;;;;;;;;;;;;;;;;;;;;;;;;;;;;;;;;;;;;;;;;;;;;;;;;;;;;;;;;;;;;;;;;;;;;;;;;;;;;;;;;;;;;;;;;;;;;;;;;;;;;;;;;;;;;;;;;;;;;;;;;;;;;;;;;;;;;;;;;;;;;;;;;;;;;;;;;;;;;;;;;;;;;;;;;;;;;;;;;;;;;;;;;;;;;;;;;;;;;;;;;;;;;;;;;;;;;;;;;;;;;;;;;;;;;;;;;;;;;;;;;;;;;;;;;;;;;;;;;;;;;;;;;;;;81.5;;;;;;;;;;;;;;;;;;;;;;;;
1991;[40] FREY F. A. (1991);samp. MU-9;3750;HAWAIIAN ISLANDS / HAWAII / MAUNA KEA / POST-SHIELD STAGE / HAMAKUA SERIES;MAULUA GULCH;20;-155.25;20;-155.25;;;OUTCROP;;;SUBAERIAL;VOLCANIC ROCK;ANKARAMITE;;;;;;;;MODERATELY ALTERED;;MINERAL / COMPONENT (INCL. GROUNDMASS);PLAGIOCLASE;LP-5_4C;MICROPHENOCRYST;CORE;0.35 MM;PRIMARY;;;;;;;;50.3;;31.3;;;;;;0.75;;14.4;;;;;;;;0.15;EMP (EPMA);;;3.1;EMP (EPMA);;;;;;;;;;;;;;;;;;;;;;;;;;;;;;;;;;;;;;;;;;;;;;;;;;;;;;;;;;;;;;;;;;;;;;;;;;;;;;;;;;;;;;;;;;;;;;;;;;;;;;;;;;;;;;;;;;;;;;;;;;;;;;;;;;;;;;;;;;;;;;;;;;;;;;;;;;;;;;;;;;;;;;;;;;;;;;;;;;;;;;;;;;;;;;;;;;;;;;;;;;;;;;;;;;;;;;;;;;;;;;;;;;;;;;;;;;;;;;;;;;;;;;;;;;;;;;;;;;;;;;;;;;;;;;;;;71.3;;;;;;;;;;;;;;;;;;;;;;;;
1990;[41] FREY F. A. (1990);samp. 115-12;;HAWAIIAN ISLANDS / HAWAII / MAUNA KEA / HAMAKUA SERIES;HAPUNA TO WAIMEA SECTION, HAPUNA BAY, NORTHWEST  FLANK;19.6;-155.7;19.6;-155.7;;;OUTCROP;;;SUBAERIAL;VOLCANIC ROCK;ANKARAMITE;;;;;;;;;;WHOLE ROCK;;;;;;;;;;;;;;46.77;1.9;10.57;;;;12.02;;;;10.88;15.25;0.16;;;;;;0.46;XRF;;;1.76;XRF;1.66;INAA;0.22;;0.16;;;;;;;;;;;;;;;;;;;;;;;;;;;;;;;;;;;;;;;;;;;;;;;31.4;INAA;;;;;;222;XRF;;;1167;INAA;;;;;70.8;INAA;;;;;486;XRF;;;;;;;;;103;XRF;;;15.6;XRF;;;;;;8.6;XRF;;;384;XRF;;;17;XRF;;;135;XRF;;;17;XRF;;;;;;;;;;;;173;XRF;;;13.7;INAA;;;35;INAA;;;;;;;19.9;INAA;;;4.58;INAA;;;1.58;INAA;;;;0.61;INAA;;;;0.5;;;1.27;INAA;;;0.19;3.1;INAA;;;0.98;;;;;;;;;;;;;;;;;;;;;;0.6;INAA;;;;;;;;;;;;;;;;;;;;;;;;;;;;;;;;;;;;;;;;;;;;;;;;;;;;;;;;;;;;;;;;;;;;;;;;;;;;;;;;;;;;;;;;;;;;;;;;;;;;;;;
1990;[41] FREY F. A. (1990);samp. 97-14;;HAWAIIAN ISLANDS / HAWAII / MAUNA KEA / HAMAKUA SERIES;HAPUNA TO WAIMEA SECTION, HAPUNA BAY, NORTHWEST  FLANK;19.6;-155.7;19.6;-155.7;;;OUTCROP;;;SUBAERIAL;VOLCANIC ROCK;ANKARAMITE;;;;;;;;;;WHOLE ROCK;;;;;;;;;;;;;;46.3;1.86;10.23;;;;12.09;;;;10.95;15.88;0.16;;;;;;0.42;XRF;;;1.36;XRF;1.6;INAA;0.23;;0.22;;;;;;;;;;;;;;;;;;;;;;;;;;;;;;;;;;;;;;;;;;;;;;;32.3;INAA;;;;;;221;XRF;;;1220;INAA;;;;;72.5;INAA;;;;;501;XRF;;;;;;;;;99;XRF;;;16.9;XRF;;;;;;6.6;XRF;;;380;XRF;;;16;XRF;;;131;XRF;;;16.6;XRF;;;;;;;;;;;;171;XRF;;;13.5;INAA;;;33.2;INAA;;;;;;;18.6;INAA;;;4.47;INAA;;;1.56;INAA;;;;0.66;INAA;;;;0.7;;;1.27;INAA;;;0.19;3.1;INAA;;;0.85;;;;;;;;;;;;;;;;;;;;;;0.5;INAA;;;;;;;;;;;;;;;;;;;;;;;;;;;;;;;;;;;;;;;;;;;;;;;;;;;;;;;;;;;;;;;;;;;;;;;;;;;;;;;;;;;;;;;;;;;;;;;;;;;;;;;
1990;[41] FREY F. A. (1990);samp. C-207;;HAWAIIAN ISLANDS / HAWAII / MAUNA KEA / HAMAKUA SERIES;WAIKII SECTION, NORTHWEST FLANK;19.6;-155.7;19.6;-155.7;;;OUTCROP;;;SUBAERIAL;VOLCANIC ROCK;ANKARAMITE;;;;;;;;;;WHOLE ROCK;;;;;;;;;;;;;;46.18;3.98;13.9;;;;15.14;;;;10.49;5.57;0.18;;;;;;1.02;XRF;;;3;XRF;;;0.56;;0.63;;;;;;;;;;;;;;;;;;;;;;;;;;;;;;;;;;;;;;;;;;;;;;;;;;;;;;;;;;;;;;;;;;;;;;;;;;;;;;;;;;;;;;;;;;;;;;;;;;;;;;;;;;;;;;;;;;;;;;;;;;;;;;;;;;;;;;;;;;;;;;;;;;;;;;;;;;;;;;;;;;;;;;;;;;;;;;;;;;;;;;;;;;;;;;;;;;;;;;;;;;;;;;;;;;;;;;;;;;;;;;;;;;;;;;;;;;;;;;;;;;;;;;;;;;;;;;;;;;;;;;;;;;;;;;;;;;;;;;;;;;;;;;;;;;;;
1990;[41] FREY F. A. (1990);samp. 97-14;;HAWAIIAN ISLANDS / HAWAII / MAUNA KEA / HAMAKUA SERIES;HAPUNA TO WAIMEA SECTION, HAPUNA BAY, NORTHWEST  FLANK;19.6;-155.7;19.6;-155.7;;;OUTCROP;;;SUBAERIAL;VOLCANIC ROCK;ANKARAMITE;;;;;;;;;;MINERAL / COMPONENT (INCL. GROUNDMASS);PLAGIOCLASE;;PHENOCRYST;;;PRIMARY;;;;;;;;47.82;;33.03;;;;;;;;16.41;;;;;;;;0.07;NOT;;;2.35;NOT;;;;;;;;;;;;;;;;;;;;;;;;;;;;;;;;;;;;;;;;;;;;;;;;;;;;;;;;;;;;;;;;;;;;;;;;;;;;;;;;;;;;;;;;;;;;;;;;;;;;;;;;;;;;;;;;;;;;;;;;;;;;;;;;;;;;;;;;;;;;;;;;;;;;;;;;;;;;;;;;;;;;;;;;;;;;;;;;;;;;;;;;;;;;;;;;;;;;;;;;;;;;;;;;;;;;;;;;;;;;;;;;;;;;;;;;;;;;;;;;;;;;;;;;;;;;;;;;;;;;;;;;;;;;;;;20.5;;79;;;;;;;0.5;;;;;;;;;;;;;;;;;
1990;[41] FREY F. A. (1990);samp. 97-14;;HAWAIIAN ISLANDS / HAWAII / MAUNA KEA / HAMAKUA SERIES;HAPUNA TO WAIMEA SECTION, HAPUNA BAY, NORTHWEST  FLANK;19.6;-155.7;19.6;-155.7;;;OUTCROP;;;SUBAERIAL;VOLCANIC ROCK;ANKARAMITE;;;;;;;;;;MINERAL / COMPONENT (INCL. GROUNDMASS);OLIVINE;;PHENOCRYST;;;PRIMARY;;;;;;;;40.59;;;;;;;;;13.6;0.32;44.88;0.16;;;0.22;;;;;;;;;;;;;;;;;;;;;;;;;;;;;;;;;;;;;;;;;;;;;;;;;;;;;;;;;;;;;;;;;;;;;;;;;;;;;;;;;;;;;;;;;;;;;;;;;;;;;;;;;;;;;;;;;;;;;;;;;;;;;;;;;;;;;;;;;;;;;;;;;;;;;;;;;;;;;;;;;;;;;;;;;;;;;;;;;;;;;;;;;;;;;;;;;;;;;;;;;;;;;;;;;;;;;;;;;;;;;;;;;;;;;;;;;;;;;;;;;;;;;;;;;;;;;;;;;;;;;;;;;;;;;;;;;;;;;;;;;;;;84.8;;;;;;;;;;;;;;;;;;;;;
1990;[41] FREY F. A. (1990);samp. 97-14;;HAWAIIAN ISLANDS / HAWAII / MAUNA KEA / HAMAKUA SERIES;HAPUNA TO WAIMEA SECTION, HAPUNA BAY, NORTHWEST  FLANK;19.6;-155.7;19.6;-155.7;;;OUTCROP;;;SUBAERIAL;VOLCANIC ROCK;ANKARAMITE;;;;;;;;;;MINERAL / COMPONENT (INCL. GROUNDMASS);CLINOPYROXENE;;PHENOCRYST;;;PRIMARY;;;;;;;;50.24;1.61;3.62;0.1;;;;2.33;;6.1;20.09;15.2;0.13;;;;;;;;;;0.56;NOT;;;;;;;;;;;;;;;;;;;;;;;;;;;;;;;;;;;;;;;;;;;;;;;;;;;;;;;;;;;;;;;;;;;;;;;;;;;;;;;;;;;;;;;;;;;;;;;;;;;;;;;;;;;;;;;;;;;;;;;;;;;;;;;;;;;;;;;;;;;;;;;;;;;;;;;;;;;;;;;;;;;;;;;;;;;;;;;;;;;;;;;;;;;;;;;;;;;;;;;;;;;;;;;;;;;;;;;;;;;;;;;;;;;;;;;;;;;;;;;;;;;;;;;;;;;;;;;;;;;;;;;;;;;;;;;;;;;;;;;;;;;;;;;;;;;;;;;;;
1990;[41] FREY F. A. (1990);samp. 97-14;;HAWAIIAN ISLANDS / HAWAII / MAUNA KEA / HAMAKUA SERIES;HAPUNA TO WAIMEA SECTION, HAPUNA BAY, NORTHWEST  FLANK;19.6;-155.7;19.6;-155.7;;;OUTCROP;;;SUBAERIAL;VOLCANIC ROCK;ANKARAMITE;;;;;;;;;;MINERAL / COMPONENT (INCL. GROUNDMASS);ILMENITE;;GROUNDMASS;;;PRIMARY;;;;;;;;;49.24;0.09;;;;;9.09;;38.67;;2.83;0.56;;;;;;;;;;;;;;;;;;;;;;;;;;;;;;;;;;;;;;;;;;;;;;;;;;;;;;;;;;;;;;;;;;;;;;;;;;;;;;;;;;;;;;;;;;;;;;;;;;;;;;;;;;;;;;;;;;;;;;;;;;;;;;;;;;;;;;;;;;;;;;;;;;;;;;;;;;;;;;;;;;;;;;;;;;;;;;;;;;;;;;;;;;;;;;;;;;;;;;;;;;;;;;;;;;;;;;;;;;;;;;;;;;;;;;;;;;;;;;;;;;;;;;;;;;;;;;;;;;;;;;;;;;;;;;;;;;;;;;;;;;;;;;;;;;;;;;;;;;;;;;;;;;;;
1990;[41] FREY F. A. (1990);samp. 97-14;;HAWAIIAN ISLANDS / HAWAII / MAUNA KEA / HAMAKUA SERIES;HAPUNA TO WAIMEA SECTION, HAPUNA BAY, NORTHWEST  FLANK;19.6;-155.7;19.6;-155.7;;;OUTCROP;;;SUBAERIAL;VOLCANIC ROCK;ANKARAMITE;;;;;;;;;;MINERAL / COMPONENT (INCL. GROUNDMASS);SPINEL;;GROUNDMASS;;;PRIMARY;;;;;;;;;19.42;1.59;;;;;30.11;;46.95;;1.17;0.56;;;;;;;;;;;;;;;;;;;;;;;;;;;;;;;;;;;;;;;;;;;;;;;;;;;;;;;;;;;;;;;;;;;;;;;;;;;;;;;;;;;;;;;;;;;;;;;;;;;;;;;;;;;;;;;;;;;;;;;;;;;;;;;;;;;;;;;;;;;;;;;;;;;;;;;;;;;;;;;;;;;;;;;;;;;;;;;;;;;;;;;;;;;;;;;;;;;;;;;;;;;;;;;;;;;;;;;;;;;;;;;;;;;;;;;;;;;;;;;;;;;;;;;;;;;;;;;;;;;;;;;;;;;;;;;;;;;;;;;;;;;;;;;;;;;;;;;;;;;;;;;;;;;;
1986;[60] STILLE P. (1986);samp. 79MK1;633;HAWAIIAN ISLANDS / HAWAII / MAUNA KEA;;19.83;-155.42;19.83;-155.42;;;OUTCROP;;;SUBAERIAL;VOLCANIC ROCK;ANKARAMITE;;;;;;;;;;WHOLE ROCK;;;;;;;;;;;;;;;;;;;;;;;;;;;;;;;;;;;;;;;;;;;;;;;;;;;;;;;;;;;;;;;;;;;;;;;;;;;;;;;;;;;;;;;;;;;;;;;;;;;;;;;;;;;;;;;;;;;;;;;;;;;;;;;;;;;;;;;;;;;;;;;;;;;;;;;;;;;;;;;;;;;;;;;;;;;;;;;;;;;;;;;;;;;;;;;;;;;;;;;;;;;;;;;;;;;;;;;;;;;;;;;;;;;;;;;;;;;;;;;;;;0.513028;;;0.70347;;18.398;TIMS;;;;;15.49;TIMS;;;;38.017;TIMS;;;;;;;;;;;;;0.283196;;;;;;;;;;;;;;;;;;;;;;;;;;;;;;;;;;;;;;;;;;;;;;;;;;;;;;;;;;;;;;