Year;CITATION;SAMPLE NAME;UNIQUE_ID;LOCATION;LOCATION COMMENT;LATITUDE (MIN.);LONGITUDE (MIN.);LATITUDE (MAX.);LONGITUDE (MAX.);ELEVATION (MIN.);ELEVATION (MAX.);SAMPLING TECHNIQUE;DRILLING DEPTH (MIN.);DRILLING DEPTH (MAX.);LAND/SEA (SAMPLING);ROCK TYPE;ROCK NAME;ROCK TEXTURE;SAMPLE COMMENT;AGE (MIN.);AGE (MAX.);GEOLOGICAL AGE;GEOLOGICAL AGE PREFIX;ERUPTION YEAR;ALTERATION;ALTERATION TYPE;TYPE OF MATERIAL;MINERAL / COMPONENT;SPOT (MINERAL);CRYSTAL;RIM / CORE (MINERAL GRAINS);GRAIN SIZE;PRIMARY/SECONDARY;INCLUSION TYPE;SPOT (INCLUSION);MINERAL (INCLUSION);RIM / CORE (INCLUSION);HOSTMINERAL (INCLUSION);HEATING;HEATING TEMPERATURE (?C);SIO2(WT%);TIO2(WT%);AL2O3(WT%);CR2O3(WT%);V2O3(WT%);V2O5(WT%);FE2O3T(WT%);FE2O3(WT%);FEOT(WT%);FEO(WT%);CAO(WT%);MGO(WT%);MNO(WT%);BAO(WT%);SRO(WT%);NIO(WT%);ZNO(WT%);COO(WT%);K2O(WT%);;;;NA2O(WT%);;;;P2O5(WT%);H2O(WT%);H2OP(WT%);H2OM(WT%);CO2(WT%);F(WT%);CL(WT%);CL2(WT%);SO3(WT%);S(WT%);LOI(WT%);O(WT%);SI(WT%);AL(WT%);TI(WT%);FE(WT%);MG(WT%);MN(WT%);CA(WT%);K(WT%): altern. values or methods;;;;NA(WT%);CR(WT%);NI(WT%);HE(CCMSTP/G);HE3(CCMSTP/G);HE4(CCMSTP/G): altern. values or methods;;;;LI(PPM);BE(PPM);B(PPM);F(PPM);NE20(CCMSTP/G);NE22(CCMSTP/G);P(PPM);S(PPM);CL(PPM);AR36(CCMSTP/G);AR40(CCMSTP/G);AR40(MOL/G): altern. values or methods;;;;AR40(PPB);K(PPM);SC(PPM): altern. values or methods;;;;;;TI(PPM);V(PPM): altern. values or methods;;;;CR(PPM): altern. values or methods;;;;MN(PPM);FE(PPM);CO(PPM): altern. values or methods;;;;;;NI(PPM): altern. values or methods;;;;;;CU(PPM): altern. values or methods;;;;ZN(PPM): altern. values or methods;;;;GA(PPM): altern. values or methods;;;;GE(PPM);AS(PPM);KR84(CCMSTP/G);RB(PPM): altern. values or methods;;;;SR(PPM): altern. values or methods;;;;Y(PPM): altern. values or methods;;;;ZR(PPM): altern. values or methods;;;;NB(PPM): altern. values or methods;;;;MO(PPM);RU(PPB);RH(PPB);PD(PPB);IN(PPM);SN(PPM);SB(PPM);XE132(CCMSTP/G);CS(PPM);BA(PPM): altern. values or methods;;;;LA(PPM): altern. values or methods;;;;CE(PPM): altern. values or methods;;;;PR(PPM): altern. values or methods;;;;ND(PPM): altern. values or methods;;;;SM(PPM): altern. values or methods;;;;EU(PPM): altern. values or methods;;;;GD(PPM);TB(PPM): altern. values or methods;;;;DY(PPM);HO(PPM);ER(PPM);TM(PPM);YB(PPM): altern. values or methods;;;;LU(PPM);HF(PPM): altern. values or methods;;;;TA(PPM);W(PPM);RE(PPB): altern. values or methods;;;;RE(PPT);OS(PPB): altern. values or methods;;;;OS(PPT);IR(PPB);PT(PPB);AU(PPB);HG(PPB);TL(PPM);PB(PPM): altern. values or methods;;;;PB210_ACT(DPM/G);TH(PPM): altern. values or methods;;;;TH(PPB);U(PPM): altern. values or methods;;;;U(PPB);CO2(PPM);H2O(PPM);ND143_ND144;ND148_ND144;SM147_ND144;SR87_SR86;RB87_SR86;PB206_PB204: altern. values or methods;;;;PB206_PB207;PB206_PB208;PB207_PB204: altern. values or methods;;;;PB207_PB206;PB208_PB204: altern. values or methods;;;;PB208_PB206;OS187_OS186;OS187_OS188: altern. values or methods;;;;RE187_OS188: altern. values or methods;;;;HF176_HF177;HE3_HE4;HE3_HE4(R/R(A)): altern. values or methods;;;;HE4_HE3: altern. values or methods;;;;;;HE4_HE3(R/R(A)): altern. values or methods;;;;AR38_AR36;AR40_AR36;NE20_NE22;NE21_NE22;XE129_XE132;PB206_U238;PB207_U235;PB210_U238;TH232_U238;U238_PB204;D13C(VS SMOW);D17O(VS VSMOW);D18O(PER MIL);D18O(VS PDB);D18O(VS SMOW);D18O(VS VSMOW);D34S(VS CDT);D44_40CA(VS SRM915A);D56FE(VS IRMM-014);DD(VS SMOW);ALBITE(MOL%);ACMITE(MOL%);ANORTHITE(MOL%);ENSTATITE(MOL%);FAYALITE(MOL%);FORSTERITE(MOL%);FERROSILITE(MOL%);HEMATITE(MOL%);LARNITE(MOL%);ORTHOCLASE(MOL%);PSEUDOBROOKITE(MOL%);TEPHROITE(MOL%);ULVOSPINEL(MOL%);WOLLASTONITE(MOL%);AGE(KA);AGE(MA): altern. values or methods;;;;;;;;AGE_PB207_PB206(MA);AGE_PB207_U235(MA);AGE_PB206_U238(MA);
2000;[4843] THIRLWALL M. F. (2000);samp. AN13;;CANARY ISLANDS / TENERIFE;ANAGA MASSIF;28.5;-16.3;28.5;-16.3;;;OUTCROP;;;SUBAERIAL;VOLCANIC ROCK;ANKARAMITE;;;4200000;8000000;NEOGENE;;;;;MINERAL / COMPONENT (INCL. GROUNDMASS);CLINOPYROXENE;CPX1;;;;PRIMARY;;;;;;;;46.8;2.38;7.21;0.31;;;;;;6.99;22.22;12.96;0.16;;;;;;;;;;0.72;EMP (EPMA);;;;;;;;;;;;;;;;;;;;;;;;;;;;;;;;;;;;;;;;;;;;;;;;;;;;;;;;;;;;;;;;;;;;;;;;;;;;;;;;;;;;;;;;;;;;;;;;;;;;;;;;;;;;;;;;;;;;;;;;;;;;;;;;;;;;;;;;;;;;;;;;;;;;;;;;;;;;;;;;;;;;;;;;;;;;;;;;;;;;;;;;;;;;;;;;;;;;;;;;;;;;;;;;;;;;;;;;;;;;;;;;;;;;;;;;;;;;;;;;;;;;;;;;;;;;;;;;;;;;;;;;;;;;;;;;;;;;;;;;;;;;;;;;;;;;;;;;;
2000;[4843] THIRLWALL M. F. (2000);samp. AN13;;CANARY ISLANDS / TENERIFE;ANAGA MASSIF;28.5;-16.3;28.5;-16.3;;;OUTCROP;;;SUBAERIAL;VOLCANIC ROCK;ANKARAMITE;;;4200000;8000000;NEOGENE;;;;;MINERAL / COMPONENT (INCL. GROUNDMASS);CLINOPYROXENE;CPX2;;;;PRIMARY;;;;;;;;46.68;2.43;7.54;0.31;;;;;;6.86;22.25;13.02;0.16;;;;;;;;;;0.73;EMP (EPMA);;;;;;;;;;;;;;;;;;;;;;;;;;;;;;;;;;;;;;;;;;;;;;;;;;;;;;;;;;;;;;;;;;;;;;;;;;;;;;;;;;;;;;;;;;;;;;;;;;;;;;;;;;;;;;;;;;;;;;;;;;;;;;;;;;;;;;;;;;;;;;;;;;;;;;;;;;;;;;;;;;;;;;;;;;;;;;;;;;;;;;;;;;;;;;;;;;;;;;;;;;;;;;;;;;;;;;;;;;;;;;;;;;;;;;;;;;;;;;;;;;;;;;;;;;;;;;;;;;;;;;;;;;;;;;;;;;;;;;;;;;;;;;;;;;;;;;;;;
2000;[4843] THIRLWALL M. F. (2000);samp. TE8;;CANARY ISLANDS / TENERIFE;TENO MASSIF;28.3;-16.83;28.3;-16.83;990;990;OUTCROP;;;SUBAERIAL;VOLCANIC ROCK;ANKARAMITE;;;6000000;6400000;MIOCENE;;;;;MINERAL / COMPONENT (INCL. GROUNDMASS);CLINOPYROXENE;CPX1;;;;PRIMARY;;;;;;;;47.69;2.7;5.99;0.1;;;;;;6.82;22.75;13.26;0.12;;;;;;;;;;0.8;EMP (EPMA);;;;;;;;;;;;;;;;;;;;;;;;;;;;;;;;;;;;;;;;;;;;;;;;;;;;;;;;;;;;;;;;;;;;;;;;;;;;;;;;;;;;;;;;;;;;;;;;;;;;;;;;;;;;;;;;;;;;;;;;;;;;;;;;;;;;;;;;;;;;;;;;;;;;;;;;;;;;;;;;;;;;;;;;;;;;;;;;;;;;;;;;;;;;;;;;;;;;;;;;;;;;;;;;;;;;;;;;;;;;;;;;;;;;;;;;;;;;;;;;;;;;;;;;;;;;;;;;;;;;;;;;;;;;;;;;;;;;;;;;;;;;;;;;;;;;;;;;;
2000;[4843] THIRLWALL M. F. (2000);samp. TE8;;CANARY ISLANDS / TENERIFE;TENO MASSIF;28.3;-16.83;28.3;-16.83;990;990;OUTCROP;;;SUBAERIAL;VOLCANIC ROCK;ANKARAMITE;;;6000000;6400000;MIOCENE;;;;;MINERAL / COMPONENT (INCL. GROUNDMASS);CLINOPYROXENE;CPX2;;;;PRIMARY;;;;;;;;47.4;2.82;6.08;;;;;;;7.19;22.44;12.94;0.22;;;;;;;;;;0.74;EMP (EPMA);;;;;;;;;;;;;;;;;;;;;;;;;;;;;;;;;;;;;;;;;;;;;;;;;;;;;;;;;;;;;;;;;;;;;;;;;;;;;;;;;;;;;;;;;;;;;;;;;;;;;;;;;;;;;;;;;;;;;;;;;;;;;;;;;;;;;;;;;;;;;;;;;;;;;;;;;;;;;;;;;;;;;;;;;;;;;;;;;;;;;;;;;;;;;;;;;;;;;;;;;;;;;;;;;;;;;;;;;;;;;;;;;;;;;;;;;;;;;;;;;;;;;;;;;;;;;;;;;;;;;;;;;;;;;;;;;;;;;;;;;;;;;;;;;;;;;;;;;
2000;[4843] THIRLWALL M. F. (2000);samp. TE8;;CANARY ISLANDS / TENERIFE;TENO MASSIF;28.3;-16.83;28.3;-16.83;990;990;OUTCROP;;;SUBAERIAL;VOLCANIC ROCK;ANKARAMITE;;;6000000;6400000;MIOCENE;;;;;MINERAL / COMPONENT (INCL. GROUNDMASS);CLINOPYROXENE;CPX3;;;;PRIMARY;;;;;;;;47.9;2.12;5.65;0.5;;;;;;6.32;22.8;13.45;0.1;;;;;;;;;;0.66;EMP (EPMA);;;;;;;;;;;;;;;;;;;;;;;;;;;;;;;;;;;;;;;;;;;;;;;;;;;;;;;;;;;;;;;;;;;;;;;;;;;;;;;;;;;;;;;;;;;;;;;;;;;;;;;;;;;;;;;;;;;;;;;;;;;;;;;;;;;;;;;;;;;;;;;;;;;;;;;;;;;;;;;;;;;;;;;;;;;;;;;;;;;;;;;;;;;;;;;;;;;;;;;;;;;;;;;;;;;;;;;;;;;;;;;;;;;;;;;;;;;;;;;;;;;;;;;;;;;;;;;;;;;;;;;;;;;;;;;;;;;;;;;;;;;;;;;;;;;;;;;;;
2000;[4843] THIRLWALL M. F. (2000);samp. TE8;;CANARY ISLANDS / TENERIFE;TENO MASSIF;28.3;-16.83;28.3;-16.83;990;990;OUTCROP;;;SUBAERIAL;VOLCANIC ROCK;ANKARAMITE;;;6000000;6400000;MIOCENE;;;;;MINERAL / COMPONENT (INCL. GROUNDMASS);CLINOPYROXENE;CPX4;;;;PRIMARY;;;;;;;;46.5;2.66;7.36;0.31;;;;;;6.97;22.68;12.44;0.01;;;;;;;;;;0.63;EMP (EPMA);;;;;;;;;;;;;;;;;;;;;;;;;;;;;;;;;;;;;;;;;;;;;;;;;;;;;;;;;;;;;;;;;;;;;;;;;;;;;;;;;;;;;;;;;;;;;;;;;;;;;;;;;;;;;;;;;;;;;;;;;;;;;;;;;;;;;;;;;;;;;;;;;;;;;;;;;;;;;;;;;;;;;;;;;;;;;;;;;;;;;;;;;;;;;;;;;;;;;;;;;;;;;;;;;;;;;;;;;;;;;;;;;;;;;;;;;;;;;;;;;;;;;;;;;;;;;;;;;;;;;;;;;;;;;;;;;;;;;;;;;;;;;;;;;;;;;;;;;
2000;[4843] THIRLWALL M. F. (2000);samp. TE2;;CANARY ISLANDS / TENERIFE;TENO MASSIF;28.3;-16.83;28.3;-16.83;990;990;OUTCROP;;;SUBAERIAL;VOLCANIC ROCK;ANKARAMITE;;;6000000;6400000;MIOCENE;;;;;MINERAL / COMPONENT (INCL. GROUNDMASS);CLINOPYROXENE;CPX1;;;;PRIMARY;;;;;;;;48.81;2.14;5.09;0.65;;;;;;5.79;22.44;13.96;0.05;;;;;;;;;;0.6;EMP (EPMA);;;;;;;;;;;;;;;;;;;;;;;;;;;;;;;;;;;;;;;;;;;;;;;;;;;;;;;;;;;;;;;;;;;;;;;;;;;;;;;;;;;;;;;;;;;;;;;;;;;;;;;;;;;;;;;;;;;;;;;;;;;;;;;;;;;;;;;;;;;;;;;;;;;;;;;;;;;;;;;;;;;;;;;;;;;;;;;;;;;;;;;;;;;;;;;;;;;;;;;;;;;;;;;;;;;;;;;;;;;;;;;;;;;;;;;;;;;;;;;;;;;;;;;;;;;;;;;;;;;;;;;;;;;;;;;;;;;;;;;;;;;;;;;;;;;;;;;;;
2000;[4843] THIRLWALL M. F. (2000);samp. TE2;;CANARY ISLANDS / TENERIFE;TENO MASSIF;28.3;-16.83;28.3;-16.83;990;990;OUTCROP;;;SUBAERIAL;VOLCANIC ROCK;ANKARAMITE;;;6000000;6400000;MIOCENE;;;;;MINERAL / COMPONENT (INCL. GROUNDMASS);CLINOPYROXENE;CPX2;;;;PRIMARY;;;;;;;;48.82;1.87;4.86;0.79;;;;;;5.47;22.62;14.15;0.05;;;;;;;;;;0.46;EMP (EPMA);;;;;;;;;;;;;;;;;;;;;;;;;;;;;;;;;;;;;;;;;;;;;;;;;;;;;;;;;;;;;;;;;;;;;;;;;;;;;;;;;;;;;;;;;;;;;;;;;;;;;;;;;;;;;;;;;;;;;;;;;;;;;;;;;;;;;;;;;;;;;;;;;;;;;;;;;;;;;;;;;;;;;;;;;;;;;;;;;;;;;;;;;;;;;;;;;;;;;;;;;;;;;;;;;;;;;;;;;;;;;;;;;;;;;;;;;;;;;;;;;;;;;;;;;;;;;;;;;;;;;;;;;;;;;;;;;;;;;;;;;;;;;;;;;;;;;;;;;
2000;[4843] THIRLWALL M. F. (2000);samp. AN13;;CANARY ISLANDS / TENERIFE;ANAGA MASSIF;28.5;-16.3;28.5;-16.3;;;OUTCROP;;;SUBAERIAL;VOLCANIC ROCK;ANKARAMITE;;;4200000;8000000;NEOGENE;;;;;MINERAL / COMPONENT (INCL. GROUNDMASS);CLINOPYROXENE;;;;;PRIMARY;;;;;;;;;2.08;;0.14;;;;;;;;;;;;;;;;;;;;;;;;;;;;;;;;;;;;;;;;;;;;;;;;;;;;;;;;;;;;;;;;;;;;;;;;104;EMP (EPMA);;;;;;256;EMP (EPMA);;;;;;;;;;;;;;;81;EMP (EPMA);;;;;;;;;;;;;9;EMP (EPMA);;;;;;;;;;66;EMP (EPMA);;;9.8;EMP (EPMA);;;40;EMP (EPMA);;;0.36;EMP (EPMA);;;;;;;;;;;;2.2;EMP (EPMA);;;2.4;EMP (EPMA);;;8;EMP (EPMA);;;1.7;EMP (EPMA);;;10;EMP (EPMA);;;3.2;EMP (EPMA);;;1;EMP (EPMA);;;3.8;0.48;EMP (EPMA);;;2.5;0.46;0.94;0.1;0.84;EMP (EPMA);;;0.12;2.3;EMP (EPMA);;;0.11;;;;;;;;;;;;;;;;;0.15;EMP (EPMA);;;;0;EMP (EPMA);;;;0.04;EMP (EPMA);;;;;;;;;;;;;;;;;;;;;;;;;;;;;;;;;;;;;;;;;;;;;;;;;;;;;;;;;;;;;;;;;;;;;;;;;;;;;;;;;;;;;;;;;;;;;;;;;;
2000;[4843] THIRLWALL M. F. (2000);samp. TE8;;CANARY ISLANDS / TENERIFE;TENO MASSIF;28.3;-16.83;28.3;-16.83;990;990;OUTCROP;;;SUBAERIAL;VOLCANIC ROCK;ANKARAMITE;;;6000000;6400000;MIOCENE;;;;;MINERAL / COMPONENT (INCL. GROUNDMASS);CLINOPYROXENE;;PHENOCRYST;;;PRIMARY;;;;;;;;;2.35;;0.09;;;;;;;;;;;;;;;;;;;;;;;;;;;;;;;;;;;;;;;;;;;;;;;;;;;;;;;;;;;;;;;;;;;;;;;;121;EMP (EPMA);;;;;;276;EMP (EPMA);;;;;;;;;;;;;;;105;EMP (EPMA);;;;;;;;;;;;;9;EMP (EPMA);;;;;;;;;;85;EMP (EPMA);;;15;EMP (EPMA);;;89;EMP (EPMA);;;0.93;EMP (EPMA);;;;;;;;;;;;0.87;EMP (EPMA);;;5.1;EMP (EPMA);;;15;EMP (EPMA);;;3;EMP (EPMA);;;16;EMP (EPMA);;;5.2;EMP (EPMA);;;1.7;EMP (EPMA);;;5.4;0.73;EMP (EPMA);;;3.9;0.68;1.6;0.2;1.1;EMP (EPMA);;;0.2;4.3;EMP (EPMA);;;0.21;;;;;;;;;;;;;;;;;0.12;EMP (EPMA);;;;0.14;EMP (EPMA);;;;0.05;EMP (EPMA);;;;;;;;;;;;;;;;;;;;;;;;;;;;;;;;;;;;;;;;;;;;;;;;;;;;;;;;;;;;;;;;;;;;;;;;;;;;;;;;;;;;;;;;;;;;;;;;;;
2000;[4844] SIMONSEN S. L. (2000);samp. TF85;11157;CANARY ISLANDS / TENERIFE;TENO MASSIF;28.3;-16.6;28.3;-16.6;;;OUTCROP;;;SUBAERIAL;VOLCANIC ROCK;ANKARAMITE;;;;;;;;;;WHOLE ROCK;;;;;;;;;;;;;;;;;;;;;;;;;;;;;;;;;;;;;;;;;;;;;;;;;;;;;;;;;;;;;;;;;;;;;;;;;;;;;;;;;;;;;;;;;;;;;;;;;;;;;;;;;;;;;;;;;;;;;;;;;;;;;;;;;;;;;;;;;;;;;;;;;;;;;;;;;;;;;;;;;;;;;;;;;;;;;;;;;;;;;;;;;;;;;;;;;;;;;;;;;;;;;;;;;;;;;;;;;;;;;;;;;;;;;;;;;;;;;;;;;;0.512883;;;0.703814;;19.899;TIMS;;;;;15.639;TIMS;;;;39.632;TIMS;;;;;;;;;;;;;;;;;;;;;;;;;;;;;;;;;;;;;;;;;;;;;;;;;;;;;;;;;;;;;;;;;;;;;;;;;;;
2000;[4847] RODRIGUEZ-LOSADA J. A. (2000);samp. FAB;;CANARY ISLANDS / TENERIFE;PUNTA POYATA MINERALIZATION, TAGANANA AREA, NW OF ANAGA MASSIF;28.5;-16.3;28.5;-16.3;130;130;OUTCROP;;;SUBAERIAL;VOLCANIC ROCK;ANKARAMITE;;;;;;;;EXTENSIVELY ALTERED;HYDROTHERMAL ALTERATION;WHOLE ROCK;;;;;;;;;;;;;;49.46;3.24;11.07;0.12;;;11.09;;;;9.69;4.77;0.13;;;;;;1.06;ICPMS;;;1.89;ICPMS;;;0.48;;;;;;;;;;4.84;;;;;;;;;;;;;;;;;;;;;;;;;;;;;;;;;;;;;;;;;;;;;;;;;;;;;;;;;;;;;;;;;;;;;;;;;;;;;;;;;;;;;;;;;;;;;;;;;;;;;;;;;;;;;;;;;;;;;;;;;;;;;;;;;;;;;;;;;;;;;;;;;;;;;;;;;;;;;;;;;;;;;;;;;;;;;;;;;;;;;;;;;;;;;;;;;;;;;;;;;;;;;;;;;;;;;;;;;;;;;;;;;;;;;;;;;;;;;;;;;;;;;;;;;;;;;;;;;;;;;;;;;;;;;;;;;;;;;;;;;;;;
2000;[4847] RODRIGUEZ-LOSADA J. A. (2000);samp. AAB;;CANARY ISLANDS / TENERIFE;PUNTA POYATA MINERALIZATION, TAGANANA AREA, NW OF ANAGA MASSIF;28.5;-16.3;28.5;-16.3;130;130;OUTCROP;;;SUBAERIAL;VOLCANIC ROCK;ANKARAMITE;;;;;;;;EXTENSIVELY ALTERED;HYDROTHERMAL ALTERATION;WHOLE ROCK;;;;;;;;;;;;;;48.87;3.02;10.41;0.1;;;9.73;;;;10.18;5.51;0.15;;;;;;0.65;ICPMS;;;2.17;ICPMS;;;0.46;;;;;;;;;;6.37;;;;;;;;;;;;;;;;;;;;;;;;;;;;;;;;;;;;;;;;;;;;;;;;;;;;;;;;;;;;;;;;;;;;;;;;;;;;;;;;;;;;;;;;;;;;;;;;;;;;;;;;;;;;;;;;;;;;;;;;;;;;;;;;;;;;;;;;;;;;;;;;;;;;;;;;;;;;;;;;;;;;;;;;;;;;;;;;;;;;;;;;;;;;;;;;;;;;;;;;;;;;;;;;;;;;;;;;;;;;;;;;;;;;;;;;;;;;;;;;;;;;;;;;;;;;;;;;;;;;;;;;;;;;;;;;;;;;;;;;;;;;
2000;[4847] RODRIGUEZ-LOSADA J. A. (2000);samp. SA;;CANARY ISLANDS / TENERIFE;PUNTA POYATA MINERALIZATION, TAGANANA AREA, NW OF ANAGA MASSIF;28.5;-16.3;28.5;-16.3;130;130;OUTCROP;;;SUBAERIAL;VOLCANIC ROCK;ANKARAMITE;;SIDERITE-RICH AGGREGATE;;;;;;EXTENSIVELY ALTERED;HYDROTHERMAL ALTERATION;MINERAL / COMPONENT (INCL. GROUNDMASS);SIDERITE;;;;;PRIMARY;;;;;;;;4.43;0.01;0.24;;;;37.04;;;;9.54;11.98;0.44;;;;;;0.16;ICPMS;;;0.11;ICPMS;;;0.03;;;;;;;;;;35.91;;;;;;;;;;;;;;;;;;;;;;;;;;;;;;;;;;;;;;;;;;;;;;;;;;;;;;;;;;;;;;;;;;;;;;;;;;;;;;;;;;;;;;;;;;;;;;;;;;;;;;;;;;;;;;;;;;;;;;;;;;;;;;;;;;;;;;;;;;;;;;;;;;;;;;;;;;;;;;;;;;;;;;;;;;;;;;;;;;;;;;;;;;;;;;;;;;;;;;;;;;;;;;;;;;;;;;;;;;;;;;;;;;;;;;;;;;;;;;;;;;;;;;;;;;;;;;;;;;;;;;;;;;;;;;;;;;;;;;;;;;;;
2000;[4847] RODRIGUEZ-LOSADA J. A. (2000);samp. CA;;CANARY ISLANDS / TENERIFE;PUNTA POYATA MINERALIZATION, TAGANANA AREA, NW OF ANAGA MASSIF;28.5;-16.3;28.5;-16.3;130;130;OUTCROP;;;SUBAERIAL;VOLCANIC ROCK;ANKARAMITE;;CELADONITE-RICH AGGREGATE;;;;;;EXTENSIVELY ALTERED;HYDROTHERMAL ALTERATION;MINERAL / COMPONENT (INCL. GROUNDMASS);CELADONITE;;;;;PRIMARY;;;;;;;;55;0.28;4.6;;;;15.8;;;;0.83;3.4;0.14;;;;;;3.04;ICPMS;;;1.38;ICPMS;;;0.13;;;;;;;;;;15.28;;;;;;;;;;;;;;;;;;;;;;;;;;;;;;;;;;;;;;;;;;;;;;;;;;;;;;;;;;;;;;;;;;;;;;;;;;;;;;;;;;;;;;;;;;;;;;;;;;;;;;;;;;;;;;;;;;;;;;;;;;;;;;;;;;;;;;;;;;;;;;;;;;;;;;;;;;;;;;;;;;;;;;;;;;;;;;;;;;;;;;;;;;;;;;;;;;;;;;;;;;;;;;;;;;;;;;;;;;;;;;;;;;;;;;;;;;;;;;;;;;;;;;;;;;;;;;;;;;;;;;;;;;;;;;;;;;;;;;;;;;;;
2000;[4847] RODRIGUEZ-LOSADA J. A. (2000);samp. SCA;;CANARY ISLANDS / TENERIFE;PUNTA POYATA MINERALIZATION, TAGANANA AREA, NW OF ANAGA MASSIF;28.5;-16.3;28.5;-16.3;130;130;OUTCROP;;;SUBAERIAL;VOLCANIC ROCK;ANKARAMITE;;SIDERITE-CELADONITE AGGREGATE;;;;;;EXTENSIVELY ALTERED;HYDROTHERMAL ALTERATION;WHOLE ROCK;;;;;;;;;;;;;;34.77;1.64;6.07;;;;18.69;;;;8.23;6.42;0.25;;;;;;1.36;ICPMS;;;1.08;ICPMS;;;0.17;;;;;;;;;;20.42;;;;;;;;;;;;;;;;;;;;;;;;;;;;;;;;;;;;;;;;;;;;;;;;;;;;;;;;;;;;;;;;;;;;;;;;;;;;;;;;;;;;;;;;;;;;;;;;;;;;;;;;;;;;;;;;;;;;;;;;;;;;;;;;;;;;;;;;;;;;;;;;;;;;;;;;;;;;;;;;;;;;;;;;;;;;;;;;;;;;;;;;;;;;;;;;;;;;;;;;;;;;;;;;;;;;;;;;;;;;;;;;;;;;;;;;;;;;;;;;;;;;;;;;;;;;;;;;;;;;;;;;;;;;;;;;;;;;;;;;;;;;
2000;[4847] RODRIGUEZ-LOSADA J. A. (2000);samp. SOA;;CANARY ISLANDS / TENERIFE;PUNTA POYATA MINERALIZATION, TAGANANA AREA, NW OF ANAGA MASSIF;28.5;-16.3;28.5;-16.3;130;130;OUTCROP;;;SUBAERIAL;VOLCANIC ROCK;ANKARAMITE;;SIDERITE-OPAL AGGREGATE;;;;;;EXTENSIVELY ALTERED;HYDROTHERMAL ALTERATION;WHOLE ROCK;;;;;;;;;;;;;;25.69;0.97;3.42;;;;31.46;;;;6.54;4.83;0.45;;;;;;0.79;ICPMS;;;0.92;ICPMS;;;0.1;;;;;;;;;;22.69;;;;;;;;;;;;;;;;;;;;;;;;;;;;;;;;;;;;;;;;;;;;;;;;;;;;;;;;;;;;;;;;;;;;;;;;;;;;;;;;;;;;;;;;;;;;;;;;;;;;;;;;;;;;;;;;;;;;;;;;;;;;;;;;;;;;;;;;;;;;;;;;;;;;;;;;;;;;;;;;;;;;;;;;;;;;;;;;;;;;;;;;;;;;;;;;;;;;;;;;;;;;;;;;;;;;;;;;;;;;;;;;;;;;;;;;;;;;;;;;;;;;;;;;;;;;;;;;;;;;;;;;;;;;;;;;;;;;;;;;;;;;
2000;[4847] RODRIGUEZ-LOSADA J. A. (2000);samp. MA;;CANARY ISLANDS / TENERIFE;PUNTA POYATA MINERALIZATION, TAGANANA AREA, NW OF ANAGA MASSIF;28.5;-16.3;28.5;-16.3;130;130;OUTCROP;;;SUBAERIAL;VOLCANIC ROCK;ANKARAMITE;;MAGNETITE-RICH AGGREGATE;;;;;;EXTENSIVELY ALTERED;HYDROTHERMAL ALTERATION;MINERAL / COMPONENT (INCL. GROUNDMASS);MAGNETITE;;;;;PRIMARY;;;;;;;;18.89;12.37;6.63;;;;45.9;;;;7.04;7.06;0.38;;;;;;0.39;ICPMS;;;0.79;ICPMS;;;0.01;;;;;;;;;;;;;;;;;;;;;;;;;;;;;;;;;;;;;;;;;;;;;;;;;;;;;;;;;;;;;;;;;;;;;;;;;;;;;;;;;;;;;;;;;;;;;;;;;;;;;;;;;;;;;;;;;;;;;;;;;;;;;;;;;;;;;;;;;;;;;;;;;;;;;;;;;;;;;;;;;;;;;;;;;;;;;;;;;;;;;;;;;;;;;;;;;;;;;;;;;;;;;;;;;;;;;;;;;;;;;;;;;;;;;;;;;;;;;;;;;;;;;;;;;;;;;;;;;;;;;;;;;;;;;;;;;;;;;;;;;;;;;;;;;;;;;;
2000;[4847] RODRIGUEZ-LOSADA J. A. (2000);samp. MM;;CANARY ISLANDS / TENERIFE;PUNTA POYATA MINERALIZATION, TAGANANA AREA, NW OF ANAGA MASSIF;28.5;-16.3;28.5;-16.3;130;130;OUTCROP;;;SUBAERIAL;VOLCANIC ROCK;ANKARAMITE;;MAGNETITE-RICH AGGREGATE;;;;;;EXTENSIVELY ALTERED;HYDROTHERMAL ALTERATION;MINERAL / COMPONENT (INCL. GROUNDMASS);MAGNETITE;;;;;PRIMARY;;;;;;;;;4.88;;;;;95.12;;;;;;;;;;;;;;;;;;;;;;;;;;;;;;;;;;;;;;;;;;;;;;;;;;;;;;;;;;;;;;;;;;;;;;;;;;;;;;;;;;;;;;;;;;;;;;;;;;;;;;;;;;;;;;;;;;;;;;;;;;;;;;;;;;;;;;;;;;;;;;;;;;;;;;;;;;;;;;;;;;;;;;;;;;;;;;;;;;;;;;;;;;;;;;;;;;;;;;;;;;;;;;;;;;;;;;;;;;;;;;;;;;;;;;;;;;;;;;;;;;;;;;;;;;;;;;;;;;;;;;;;;;;;;;;;;;;;;;;;;;;;;;;;;;;;;;;;;;;;;;;;;;;;;;;;;;
2000;[4847] RODRIGUEZ-LOSADA J. A. (2000);samp. IL;;CANARY ISLANDS / TENERIFE;PUNTA POYATA MINERALIZATION, TAGANANA AREA, NW OF ANAGA MASSIF;28.5;-16.3;28.5;-16.3;130;130;OUTCROP;;;SUBAERIAL;VOLCANIC ROCK;ANKARAMITE;;MAGNETITE-RICH AGGREGATE;;;;;;EXTENSIVELY ALTERED;HYDROTHERMAL ALTERATION;MINERAL / COMPONENT (INCL. GROUNDMASS);ILMENITE;;;;;PRIMARY;;;;;;;;;44.47;;;;;55.52;;;;;;;;;;;;;;;;;;;;;;;;;;;;;;;;;;;;;;;;;;;;;;;;;;;;;;;;;;;;;;;;;;;;;;;;;;;;;;;;;;;;;;;;;;;;;;;;;;;;;;;;;;;;;;;;;;;;;;;;;;;;;;;;;;;;;;;;;;;;;;;;;;;;;;;;;;;;;;;;;;;;;;;;;;;;;;;;;;;;;;;;;;;;;;;;;;;;;;;;;;;;;;;;;;;;;;;;;;;;;;;;;;;;;;;;;;;;;;;;;;;;;;;;;;;;;;;;;;;;;;;;;;;;;;;;;;;;;;;;;;;;;;;;;;;;;;;;;;;;;;;;;;;;;;;;;;
2000;[4847] RODRIGUEZ-LOSADA J. A. (2000);samp. KT;;CANARY ISLANDS / TENERIFE;PUNTA POYATA MINERALIZATION, TAGANANA AREA, NW OF ANAGA MASSIF;28.5;-16.3;28.5;-16.3;130;130;OUTCROP;;;SUBAERIAL;VOLCANIC ROCK;ANKARAMITE;;MAGNETITE-RICH AGGREGATE;;;;;;EXTENSIVELY ALTERED;HYDROTHERMAL ALTERATION;MINERAL / COMPONENT (INCL. GROUNDMASS);KAERSUTITE;;;;;PRIMARY;;;;;;;;44.13;;13.93;;;;27.33;;;;14.6;;;;;;;;;;;;;;;;;;;;;;;;;;;;;;;;;;;;;;;;;;;;;;;;;;;;;;;;;;;;;;;;;;;;;;;;;;;;;;;;;;;;;;;;;;;;;;;;;;;;;;;;;;;;;;;;;;;;;;;;;;;;;;;;;;;;;;;;;;;;;;;;;;;;;;;;;;;;;;;;;;;;;;;;;;;;;;;;;;;;;;;;;;;;;;;;;;;;;;;;;;;;;;;;;;;;;;;;;;;;;;;;;;;;;;;;;;;;;;;;;;;;;;;;;;;;;;;;;;;;;;;;;;;;;;;;;;;;;;;;;;;;;;;;;;;;;;;;;;;;;;;;;;;;;;
2000;[4847] RODRIGUEZ-LOSADA J. A. (2000);samp. F-1CA;;CANARY ISLANDS / TENERIFE;PUNTA POYATA MINERALIZATION, TAGANANA AREA, NW OF ANAGA MASSIF;28.5;-16.3;28.5;-16.3;130;130;OUTCROP;;;SUBAERIAL;VOLCANIC ROCK;ANKARAMITE;;;;;;;;EXTENSIVELY ALTERED;HYDROTHERMAL ALTERATION;MINERAL / COMPONENT (INCL. GROUNDMASS);CALCITE;;;;;PRIMARY;;;;;;;;;;;;;;;;;;;;;;;;;;;;;;;;;;;;;;;;;;;;;;;;;;;;;;;;;;;;;;;;;;;;;;;;;;;;;;;;;;;;;;;;;;;;;;;;;;;;;;;;;;;;;;;;;;;;;;;;;;;;;;;;;;;;;;;;;;;;;;;;;;;;;;;;;;;;;;;;;;;;;;;;;;;;;;;;;;;;;;;;;;;;;;;;;;;;;;;;;;;;;;;;;;;;;;;;;;;;;;;;;;;;;;;;;;;;;;;;;;;;;;;;;;;;;;;;;;;;;;;;;;;;;;;;;;;;;;;;;;;;;;;;;;;;-19.97;;;29.58;;;;;;;;;;;;;;;;;;;;;;;;;;;;;;;;;
2000;[4847] RODRIGUEZ-LOSADA J. A. (2000);samp. F-1-A;;CANARY ISLANDS / TENERIFE;PUNTA POYATA MINERALIZATION, TAGANANA AREA, NW OF ANAGA MASSIF;28.5;-16.3;28.5;-16.3;130;130;OUTCROP;;;SUBAERIAL;VOLCANIC ROCK;ANKARAMITE;;;;;;;;EXTENSIVELY ALTERED;HYDROTHERMAL ALTERATION;MINERAL / COMPONENT (INCL. GROUNDMASS);CALCITE;;;;;PRIMARY;;;;;;;;;;;;;;;;;;;;;;;;;;;;;;;;;;;;;;;;;;;;;;;;;;;;;;;;;;;;;;;;;;;;;;;;;;;;;;;;;;;;;;;;;;;;;;;;;;;;;;;;;;;;;;;;;;;;;;;;;;;;;;;;;;;;;;;;;;;;;;;;;;;;;;;;;;;;;;;;;;;;;;;;;;;;;;;;;;;;;;;;;;;;;;;;;;;;;;;;;;;;;;;;;;;;;;;;;;;;;;;;;;;;;;;;;;;;;;;;;;;;;;;;;;;;;;;;;;;;;;;;;;;;;;;;;;;;;;;;;;;;;;;;;;;;1.99;;;24.33;;;;;;;;;;;;;;;;;;;;;;;;;;;;;;;;;