Year;CITATION;SAMPLE NAME;UNIQUE_ID;LOCATION;LOCATION COMMENT;LATITUDE (MIN.);LONGITUDE (MIN.);LATITUDE (MAX.);LONGITUDE (MAX.);ELEVATION (MIN.);ELEVATION (MAX.);SAMPLING TECHNIQUE;DRILLING DEPTH (MIN.);DRILLING DEPTH (MAX.);LAND/SEA (SAMPLING);ROCK TYPE;ROCK NAME;ROCK TEXTURE;SAMPLE COMMENT;AGE (MIN.);AGE (MAX.);GEOLOGICAL AGE;GEOLOGICAL AGE PREFIX;ERUPTION YEAR;ALTERATION;ALTERATION TYPE;TYPE OF MATERIAL;MINERAL / COMPONENT;SPOT (MINERAL);CRYSTAL;RIM / CORE (MINERAL GRAINS);GRAIN SIZE;PRIMARY/SECONDARY;INCLUSION TYPE;SPOT (INCLUSION);MINERAL (INCLUSION);RIM / CORE (INCLUSION);HOSTMINERAL (INCLUSION);HEATING;HEATING TEMPERATURE (?C);SIO2(WT%);TIO2(WT%);AL2O3(WT%);CR2O3(WT%);V2O3(WT%);V2O5(WT%);FE2O3T(WT%);FE2O3(WT%);FEOT(WT%);FEO(WT%);CAO(WT%);MGO(WT%);MNO(WT%);BAO(WT%);SRO(WT%);NIO(WT%);ZNO(WT%);COO(WT%);K2O(WT%);;;;NA2O(WT%);;;;P2O5(WT%);H2O(WT%);H2OP(WT%);H2OM(WT%);CO2(WT%);F(WT%);CL(WT%);CL2(WT%);SO3(WT%);S(WT%);LOI(WT%);O(WT%);SI(WT%);AL(WT%);TI(WT%);FE(WT%);MG(WT%);MN(WT%);CA(WT%);K(WT%): altern. values or methods;;;;NA(WT%);CR(WT%);NI(WT%);HE(CCMSTP/G);HE3(CCMSTP/G);HE4(CCMSTP/G): altern. values or methods;;;;LI(PPM);BE(PPM);B(PPM);F(PPM);NE20(CCMSTP/G);NE22(CCMSTP/G);P(PPM);S(PPM);CL(PPM);AR36(CCMSTP/G);AR40(CCMSTP/G);AR40(MOL/G): altern. values or methods;;;;AR40(PPB);K(PPM);SC(PPM): altern. values or methods;;;;;;TI(PPM);V(PPM): altern. values or methods;;;;CR(PPM): altern. values or methods;;;;MN(PPM);FE(PPM);CO(PPM): altern. values or methods;;;;;;NI(PPM): altern. values or methods;;;;;;CU(PPM): altern. values or methods;;;;ZN(PPM): altern. values or methods;;;;GA(PPM): altern. values or methods;;;;GE(PPM);AS(PPM);KR84(CCMSTP/G);RB(PPM): altern. values or methods;;;;SR(PPM): altern. values or methods;;;;Y(PPM): altern. values or methods;;;;ZR(PPM): altern. values or methods;;;;NB(PPM): altern. values or methods;;;;MO(PPM);RU(PPB);RH(PPB);PD(PPB);IN(PPM);SN(PPM);SB(PPM);XE132(CCMSTP/G);CS(PPM);BA(PPM): altern. values or methods;;;;LA(PPM): altern. values or methods;;;;CE(PPM): altern. values or methods;;;;PR(PPM): altern. values or methods;;;;ND(PPM): altern. values or methods;;;;SM(PPM): altern. values or methods;;;;EU(PPM): altern. values or methods;;;;GD(PPM);TB(PPM): altern. values or methods;;;;DY(PPM);HO(PPM);ER(PPM);TM(PPM);YB(PPM): altern. values or methods;;;;LU(PPM);HF(PPM): altern. values or methods;;;;TA(PPM);W(PPM);RE(PPB): altern. values or methods;;;;RE(PPT);OS(PPB): altern. values or methods;;;;OS(PPT);IR(PPB);PT(PPB);AU(PPB);HG(PPB);TL(PPM);PB(PPM): altern. values or methods;;;;PB210_ACT(DPM/G);TH(PPM): altern. values or methods;;;;TH(PPB);U(PPM): altern. values or methods;;;;U(PPB);CO2(PPM);H2O(PPM);ND143_ND144;ND148_ND144;SM147_ND144;SR87_SR86;RB87_SR86;PB206_PB204: altern. values or methods;;;;PB206_PB207;PB206_PB208;PB207_PB204: altern. values or methods;;;;PB207_PB206;PB208_PB204: altern. values or methods;;;;PB208_PB206;OS187_OS186;OS187_OS188: altern. values or methods;;;;RE187_OS188: altern. values or methods;;;;HF176_HF177;HE3_HE4;HE3_HE4(R/R(A)): altern. values or methods;;;;HE4_HE3: altern. values or methods;;;;;;HE4_HE3(R/R(A)): altern. values or methods;;;;AR38_AR36;AR40_AR36;NE20_NE22;NE21_NE22;XE129_XE132;PB206_U238;PB207_U235;PB210_U238;TH232_U238;U238_PB204;D13C(VS SMOW);D17O(VS VSMOW);D18O(PER MIL);D18O(VS PDB);D18O(VS SMOW);D18O(VS VSMOW);D34S(VS CDT);D44_40CA(VS SRM915A);D56FE(VS IRMM-014);DD(VS SMOW);ALBITE(MOL%);ACMITE(MOL%);ANORTHITE(MOL%);ENSTATITE(MOL%);FAYALITE(MOL%);FORSTERITE(MOL%);FERROSILITE(MOL%);HEMATITE(MOL%);LARNITE(MOL%);ORTHOCLASE(MOL%);PSEUDOBROOKITE(MOL%);TEPHROITE(MOL%);ULVOSPINEL(MOL%);WOLLASTONITE(MOL%);AGE(KA);AGE(MA): altern. values or methods;;;;;;;;AGE_PB207_PB206(MA);AGE_PB207_U235(MA);AGE_PB206_U238(MA);
1977;[552] TRACY R. J. (1977);samp. 10;;SOCIETY ISLANDS / TAHITI;FAATAUA RIVER, PAPEETE;-17.7;-149.45;-17.7;-149.45;;;OUTCROP;;;SUBAERIAL;VOLCANIC ROCK;ANKARAMITE;;;;;;;;;;MINERAL / COMPONENT (INCL. GROUNDMASS);AMPHIBOLE;;;;;PRIMARY;;;;;;;;39.63;6.02;11.12;0.28;;;;;12.57;;20.6;6.6;0.26;;;;;;;;;;1.11;EMP (EPMA);;;;;;;;;;;;;;;;;;;;;;;;;;;;;;;;;;;;;;;;;;;;;;;;;;;;;;;;;;;;;;;;;;;;;;;;;;;;;;;;;;;;;;;;;;;;;;;;;;;;;;;;;;;;;;;;;;;;;;;;;;;;;;;;;;;;;;;;;;;;;;;;;;;;;;;;;;;;;;;;;;;;;;;;;;;;;;;;;;;;;;;;;;;;;;;;;;;;;;;;;;;;;;;;;;;;;;;;;;;;;;;;;;;;;;;;;;;;;;;;;;;;;;;;;;;;;;;;;;;;;;;;;;;;;;;;;;;;;;;;;;;;;;;;;;;;;;;;;
1988;[571] LEOTOT C. (1988);samp. TV23;14376;SOCIETY ISLANDS / TAHITI / TARAVAO / PRE-CALDERA STAGE;;-17.75;-149.28;-17.75;-149.28;;;OUTCROP;;;SUBAERIAL;VOLCANIC ROCK;ANKARAMITE;;;;;;;;;;WHOLE ROCK;;;;;;;;;;;;;;43.23;4.54;14.8;;;;;;14.24;;10.96;6.24;0.18;;;;;;1.32;NOT;;;2.12;NOT;;;0.8;;;;;;;;;;;;;;;;;;;;;;;;;;;;;;;;;;;;;;;;;;;;;;;;;;;;;;;;;;;;;;;;;;;;;;;;;;;;;;;;;;;;;;;;;;;;;;;;;;;;;;;;;;;;;;;;;;;;;;;;;;;;;;;;;;;;;;;;;;;;;;;;;;;;;;;;;;;;;;;;;;;;;;;;;;;;;;;;;;;;;;;;;;;;;;;;;;;;;;;;;;;;;;;;;;;;;;;;;;;;;;;;;;;;;;;;;;;;;;;;;;;;;;;;;;;;;;;;;;;;;;;;;;;;;;;;;;;;;;;;;;;;;;;;;;;;;;
1988;[571] LEOTOT C. (1988);samp. NU24;14378;SOCIETY ISLANDS / TAHITI / TARAVAO / PRE-CALDERA STAGE;;-17.75;-149.28;-17.75;-149.28;;;OUTCROP;;;SUBAERIAL;VOLCANIC ROCK;ANKARAMITE;;;;;;;;;;WHOLE ROCK;;;;;;;;;;;;;;43.8;4.46;13.05;;;;;;12.86;;11.21;6.92;0.17;;;;;;1.77;NOT;;;2.07;NOT;;;0.78;;;;;;;;;;;;;;;;;;;;;;;;;;;;;;;;;;;;;;;;;;;;;;;;;;;;;;;;;;;;;;;;;;;;;;;;;;;;;;;;;;;;;;;;;;;;;;;;;;;;;;;;;;;;;;;;;;;;;;;;;;;;;;;;;;;;;;;;;;;;;;;;;;;;;;;;;;;;;;;;;;;;;;;;;;;;;;;;;;;;;;;;;;;;;;;;;;;;;;;;;;;;;;;;;;;;;;;;;;;;;;;;;;;;;;;;;;;;;;;;;;;;;;;;;;;;;;;;;;;;;;;;;;;;;;;;;;;;;;;;;;;;;;;;;;;;;;
1976;[715] GUNN B. M. (1976);samp. VM0196;;CAPE VERDE ISLANDS / MAIO;;15.15;-23.2;15.15;-23.2;;;OUTCROP;;;SUBAERIAL;VOLCANIC ROCK;ANKARAMITE;;;;;;;;;;WHOLE ROCK;;;;;;;;;;;;;;38.54;4.27;10.11;;;;12.51;;;;14.98;14.29;0.19;;;;;;1.53;XRF;;;2.65;XRF;;;0.93;;;;;;;;;;;;;;;;;;;;;;;;;;;;;;;;;;;;;;;;;;;;;;;;;;;;;;;;;;;;481.4;XRF;;;;;61.9;XRF;;;;;274.6;XRF;;;;;76.9;XRF;;;;;;;16.9;XRF;;;;;;24.3;XRF;;;732.4;XRF;;;;;;;;;;;;;;;;;;;;;;;;446.3;XRF;;;;;;;;;;;;;;;;;;;;;;;;;;;;;;;;;;;;;;;;;;;;;;;;;;;;;;;;;;;;;;2.3;XRF;;;;7.1;XRF;;;;;;;;;;;;;;;;;;;;;;;;;;;;;;;;;;;;;;;;;;;;;;;;;;;;;;;;;;;;;;;;;;;;;;;;;;;;;;;;;;;;;;;;;;;;;;;;;;;;;;;
1976;[715] GUNN B. M. (1976);samp. VM0195;;CAPE VERDE ISLANDS / MAIO;;15.23;-23.22;15.23;-23.22;;;OUTCROP;;;SUBAERIAL;VOLCANIC ROCK;ANKARAMITE;;PILLOW LAVA;;;;;;;;WHOLE ROCK;;;;;;;;;;;;;;39.06;4.25;10.13;;;;12.64;;;;15.91;13.74;0.17;;;;;;1.04;XRF;;;2.1;XRF;;;0.95;;;;;;;;;;;;;;;;;;;;;;;;;;;;;;;;;;;;;;;;;;;;;;;;;;;;;;;;;;;;526.1;XRF;;;;;77.7;XRF;;;;;301.8;XRF;;;;;76.6;XRF;;;;;;;14.7;XRF;;;;;;16.2;XRF;;;1716.4;XRF;;;;;;;;;;;;;;;;;;;;;;;;458.9;XRF;;;;;;;;;;;;;;;;;;;;;;;;;;;;;;;;;;;;;;;;;;;;;;;;;;;;;;;;;;;;;;0;XRF;;;;0;XRF;;;;;;;;;;;;;;;;;;;;;;;;;;;;;;;;;;;;;;;;;;;;;;;;;;;;;;;;;;;;;;;;;;;;;;;;;;;;;;;;;;;;;;;;;;;;;;;;;;;;;;;
1976;[715] GUNN B. M. (1976);samp. VN0133;;CAPE VERDE ISLANDS / SAO NICOLAO;CENTRAL SAO NICOLAO;16.55;-24.28;16.55;-24.28;;;OUTCROP;;;SUBAQUATIC;VOLCANIC ROCK;ANKARAMITE;;;;;;;;;;WHOLE ROCK;;;;;;;;;;;;;;41.05;2.9;12.12;;;;13.1;;;;13.4;12.93;0.2;;;;;;0.62;XRF;;;3;XRF;;;0.69;;;;;;;;;;;;;;;;;;;;;;;;;;;;;;;;;;;;;;;;;;;;;;;;;;;;;;;;;;;;391.9;XRF;;;;;68.8;XRF;;;;;246.7;XRF;;;;;74.8;XRF;;;;;;;15.9;XRF;;;;;;7.7;XRF;;;675.6;XRF;;;;;;;;;;;;;;;;;;;;;;;;425.2;XRF;;;;;;;;;;;;;;;;;;;;;;;;;;;;;;;;;;;;;;;;;;;;;;;;;;;;;;;;;;;;;;3;XRF;;;;5.1;XRF;;;;;;;;;;;;;;;;;;;;;;;;;;;;;;;;;;;;;;;;;;;;;;;;;;;;;;;;;;;;;;;;;;;;;;;;;;;;;;;;;;;;;;;;;;;;;;;;;;;;;;;
1976;[715] GUNN B. M. (1976);samp. VN0063;;CAPE VERDE ISLANDS / SAO NICOLAO;ROADCUT;16.6;-24.28;16.6;-24.28;;;OUTCROP;;;SUBAQUATIC;VOLCANIC ROCK;ANKARAMITE;;LAVA;;;;;;;;WHOLE ROCK;;;;;;;;;;;;;;42.59;2.97;11.96;;;;13.41;;;;12.62;12.54;0.18;;;;;;0.77;XRF;;;2.24;XRF;;;0.71;;;;;;;;;;;;;;;;;;;;;;;;;;;;;;;;;;;;;;;;;;;;;;;;;;;;;;;;;;;;490.7;XRF;;;;;73.8;XRF;;;;;271.1;XRF;;;;;68.9;XRF;;;;;;;15.3;XRF;;;;;;13.3;XRF;;;870.2;XRF;;;;;;;;;;;;;;;;;;;;;;;;416.2;XRF;;;;;;;;;;;;;;;;;;;;;;;;;;;;;;;;;;;;;;;;;;;;;;;;;;;;;;;;;;;;;;0;XRF;;;;0;XRF;;;;;;;;;;;;;;;;;;;;;;;;;;;;;;;;;;;;;;;;;;;;;;;;;;;;;;;;;;;;;;;;;;;;;;;;;;;;;;;;;;;;;;;;;;;;;;;;;;;;;;;
1976;[715] GUNN B. M. (1976);samp. VN0121;;CAPE VERDE ISLANDS / SAO NICOLAO;;16.62;-24.25;16.62;-24.25;;;OUTCROP;;;SUBAQUATIC;VOLCANIC ROCK;ANKARAMITE;;LAVA IN GALLEY 10 FT THICK;;;;;;;;WHOLE ROCK;;;;;;;;;;;;;;41.19;3.87;11.75;;;;12.37;;;;13.04;12.09;0.18;;;;;;0.68;XRF;;;4.06;XRF;;;0.78;;;;;;;;;;;;;;;;;;;;;;;;;;;;;;;;;;;;;;;;;;;;;;;;;;;;;;;;;;;;480.2;XRF;;;;;75.7;XRF;;;;;250.2;XRF;;;;;54;XRF;;;;;;;15.6;XRF;;;;;;5.1;XRF;;;817.3;XRF;;;;;;;;;;;;;;;;;;;;;;;;503.8;XRF;;;;;;;;;;;;;;;;;;;;;;;;;;;;;;;;;;;;;;;;;;;;;;;;;;;;;;;;;;;;;;0;XRF;;;;0;XRF;;;;;;;;;;;;;;;;;;;;;;;;;;;;;;;;;;;;;;;;;;;;;;;;;;;;;;;;;;;;;;;;;;;;;;;;;;;;;;;;;;;;;;;;;;;;;;;;;;;;;;;
1976;[715] GUNN B. M. (1976);samp. VN0061;;CAPE VERDE ISLANDS / SAO NICOLAO;ROADCUT;16.6;-24.28;16.6;-24.28;;;OUTCROP;;;SUBAQUATIC;VOLCANIC ROCK;ANKARAMITE;;LAVA;;;;;;;;WHOLE ROCK;;;;;;;;;;;;;;42.49;2.95;11.82;;;;13.39;;;;13.73;12.06;0.18;;;;;;0.76;XRF;;;1.94;XRF;;;0.68;;;;;;;;;;;;;;;;;;;;;;;;;;;;;;;;;;;;;;;;;;;;;;;;;;;;;;;;;;;;474.5;XRF;;;;;75.8;XRF;;;;;278.5;XRF;;;;;64.5;XRF;;;;;;;15.3;XRF;;;;;;17.2;XRF;;;807.1;XRF;;;;;;;;;;;;;;;;;;;;;;;;365.8;XRF;;;;;;;;;;;;;;;;;;;;;;;;;;;;;;;;;;;;;;;;;;;;;;;;;;;;;;;;;;;;;;0;XRF;;;;0;XRF;;;;;;;;;;;;;;;;;;;;;;;;;;;;;;;;;;;;;;;;;;;;;;;;;;;;;;;;;;;;;;;;;;;;;;;;;;;;;;;;;;;;;;;;;;;;;;;;;;;;;;;
1976;[715] GUNN B. M. (1976);samp. VN0093;;CAPE VERDE ISLANDS / SAO NICOLAO;ROADCUT;16.6;-24.28;16.6;-24.28;;;OUTCROP;;;SUBAQUATIC;VOLCANIC ROCK;ANKARAMITE;;20 FT LAVA;;;;;;;;WHOLE ROCK;;;;;;;;;;;;;;42.79;2.97;12.17;;;;13.02;;;;12.58;11.87;0.18;;;;;;0.69;XRF;;;3.03;XRF;;;0.71;;;;;;;;;;;;;;;;;;;;;;;;;;;;;;;;;;;;;;;;;;;;;;;;;;;;;;;;;;;;467.6;XRF;;;;;73.2;XRF;;;;;259.2;XRF;;;;;66.3;XRF;;;;;;;15.7;XRF;;;;;;8;XRF;;;716.8;XRF;;;;;;;;;;;;;;;;;;;;;;;;380.6;XRF;;;;;;;;;;;;;;;;;;;;;;;;;;;;;;;;;;;;;;;;;;;;;;;;;;;;;;;;;;;;;;0;XRF;;;;0;XRF;;;;;;;;;;;;;;;;;;;;;;;;;;;;;;;;;;;;;;;;;;;;;;;;;;;;;;;;;;;;;;;;;;;;;;;;;;;;;;;;;;;;;;;;;;;;;;;;;;;;;;;
1976;[715] GUNN B. M. (1976);samp. VN0073;;CAPE VERDE ISLANDS / SAO NICOLAO;ROADCUT;16.6;-24.28;16.6;-24.28;;;OUTCROP;;;SUBAQUATIC;VOLCANIC ROCK;ANKARAMITE;;20 FT LAVA;;;;;;;;WHOLE ROCK;;;;;;;;;;;;;;42.67;3.04;12.04;;;;13.45;;;;13.33;11.83;0.18;;;;;;0.61;XRF;;;2.14;XRF;;;0.71;;;;;;;;;;;;;;;;;;;;;;;;;;;;;;;;;;;;;;;;;;;;;;;;;;;;;;;;;;;;446.9;XRF;;;;;85.4;XRF;;;;;269;XRF;;;;;71.3;XRF;;;;;;;16;XRF;;;;;;3.8;XRF;;;753.9;XRF;;;;;;;;;;;;;;;;;;;;;;;;372.6;XRF;;;;;;;;;;;;;;;;;;;;;;;;;;;;;;;;;;;;;;;;;;;;;;;;;;;;;;;;;;;;;;0;XRF;;;;0;XRF;;;;;;;;;;;;;;;;;;;;;;;;;;;;;;;;;;;;;;;;;;;;;;;;;;;;;;;;;;;;;;;;;;;;;;;;;;;;;;;;;;;;;;;;;;;;;;;;;;;;;;;
1976;[715] GUNN B. M. (1976);samp. VN0083;;CAPE VERDE ISLANDS / SAO NICOLAO;ROADCUT;16.6;-24.28;16.6;-24.28;;;OUTCROP;;;SUBAQUATIC;VOLCANIC ROCK;ANKARAMITE;;20 FT LAVA;;;;;;;;WHOLE ROCK;;;;;;;;;;;;;;43.16;3.13;12.4;;;;13.69;;;;12.76;11.4;0.18;;;;;;0.47;XRF;;;2.05;XRF;;;0.75;;;;;;;;;;;;;;;;;;;;;;;;;;;;;;;;;;;;;;;;;;;;;;;;;;;;;;;;;;;;453.6;XRF;;;;;78.3;XRF;;;;;274.3;XRF;;;;;64.6;XRF;;;;;;;16.3;XRF;;;;;;3.2;XRF;;;791;XRF;;;;;;;;;;;;;;;;;;;;;;;;407.6;XRF;;;;;;;;;;;;;;;;;;;;;;;;;;;;;;;;;;;;;;;;;;;;;;;;;;;;;;;;;;;;;;0;XRF;;;;0;XRF;;;;;;;;;;;;;;;;;;;;;;;;;;;;;;;;;;;;;;;;;;;;;;;;;;;;;;;;;;;;;;;;;;;;;;;;;;;;;;;;;;;;;;;;;;;;;;;;;;;;;;;
1976;[715] GUNN B. M. (1976);samp. VN0043;;CAPE VERDE ISLANDS / SAO NICOLAO;CENTRAL SAO NICOLAO;16.55;-24.32;16.55;-24.32;;;OUTCROP;;;SUBAQUATIC;VOLCANIC ROCK;ANKARAMITE;;;;;;;;;;WHOLE ROCK;;;;;;;;;;;;;;43.72;3.61;13.42;;;;13.34;;;;11.33;10.68;0.19;;;;;;0.59;XRF;;;2.5;XRF;;;0.63;;;;;;;;;;;;;;;;;;;;;;;;;;;;;;;;;;;;;;;;;;;;;;;;;;;;;;;;;;;;479;XRF;;;;;61.8;XRF;;;;;275.3;XRF;;;;;61.8;XRF;;;;;;;18;XRF;;;;;;12.9;XRF;;;783.7;XRF;;;;;;;;;;;;;;;;;;;;;;;;472.1;XRF;;;;;;;;;;;;;;;;;;;;;;;;;;;;;;;;;;;;;;;;;;;;;;;;;;;;;;;;;;;;;;0.8;XRF;;;;6.4;XRF;;;;;;;;;;;;;;;;;;;;;;;;;;;;;;;;;;;;;;;;;;;;;;;;;;;;;;;;;;;;;;;;;;;;;;;;;;;;;;;;;;;;;;;;;;;;;;;;;;;;;;;
1976;[715] GUNN B. M. (1976);samp. VV0381;;CAPE VERDE ISLANDS / SAO VICENTE;NE MINDELO MILITARY CAMP;16.9;-24.98;16.9;-24.98;;;OUTCROP;;;SUBAERIAL;VOLCANIC ROCK;ANKARAMITE;;;;;;;;;;WHOLE ROCK;;;;;;;;;;;;;;42.6;2.68;7.14;;;;13.26;;;;11.96;20.71;0.16;;;;;;0.49;XRF;;;0.71;XRF;;;0.29;;;;;;;;;;;;;;;;;;;;;;;;;;;;;;;;;;;;;;;;;;;;;;;;;;;;;;;;;;;;1392.3;XRF;;;;;111.1;XRF;;;;;659.7;XRF;;;;;44.6;XRF;;;;;;;11.2;XRF;;;;;;9.9;XRF;;;297.4;XRF;;;;;;;;;;;;;;;;;;;;;;;;181.3;XRF;;;;;;;;;;;;;;;;;;;;;;;;;;;;;;;;;;;;;;;;;;;;;;;;;;;;;;;;;;;;;;0;XRF;;;;0;XRF;;;;;;;;;;;;;;;;;;;;;;;;;;;;;;;;;;;;;;;;;;;;;;;;;;;;;;;;;;;;;;;;;;;;;;;;;;;;;;;;;;;;;;;;;;;;;;;;;;;;;;;
1976;[715] GUNN B. M. (1976);samp. VV0242;;CAPE VERDE ISLANDS / SAO VICENTE;MT. VERDE;16.9;-24.97;16.9;-24.97;;;OUTCROP;;;SUBAERIAL;VOLCANIC ROCK;ANKARAMITE;;20 FT THICK LAVA;;;;;;;;WHOLE ROCK;;;;;;;;;;;;;;39.77;3.65;10.28;;;;13.94;;;;13.71;15.28;0.2;;;;;;0.55;XRF;;;1.93;XRF;;;0.67;;;;;;;;;;;;;;;;;;;;;;;;;;;;;;;;;;;;;;;;;;;;;;;;;;;;;;;;;;;;488.5;XRF;;;;;75.7;XRF;;;;;435.8;XRF;;;;;88;XRF;;;;;;;14.9;XRF;;;;;;8.7;XRF;;;684.8;XRF;;;;;;;;;;;;;;;;;;;;;;;;333.7;XRF;;;;;;;;;;;;;;;;;;;;;;;;;;;;;;;;;;;;;;;;;;;;;;;;;;;;;;;;;;;;;;3.7;XRF;;;;5.7;XRF;;;;;;;;;;;;;;;;;;;;;;;;;;;;;;;;;;;;;;;;;;;;;;;;;;;;;;;;;;;;;;;;;;;;;;;;;;;;;;;;;;;;;;;;;;;;;;;;;;;;;;;
1976;[715] GUNN B. M. (1976);samp. VV0112;;CAPE VERDE ISLANDS / SAO VICENTE;MADERAL SECTION;16.82;-24.93;16.82;-24.93;;;OUTCROP;;;SUBAERIAL;VOLCANIC ROCK;ANKARAMITE;;20 FT THICK LAVA;;;;;;;;WHOLE ROCK;;;;;;;;;;;;;;43.69;3.02;10.44;;;;13.43;;;;11.89;14.48;0.17;;;;;;0.85;XRF;;;1.59;XRF;;;0.43;;;;;;;;;;;;;;;;;;;;;;;;;;;;;;;;;;;;;;;;;;;;;;;;;;;;;;;;;;;;793.1;XRF;;;;;90.7;XRF;;;;;450.7;XRF;;;;;75.1;XRF;;;;;;;14.6;XRF;;;;;;18.8;XRF;;;542.5;XRF;;;;;;;;;;;;;;;;;;;;;;;;254.3;XRF;;;;;;;;;;;;;;;;;;;;;;;;;;;;;;;;;;;;;;;;;;;;;;;;;;;;;;;;;;;;;;3;XRF;;;;2.3;XRF;;;;;;;;;;;;;;;;;;;;;;;;;;;;;;;;;;;;;;;;;;;;;;;;;;;;;;;;;;;;;;;;;;;;;;;;;;;;;;;;;;;;;;;;;;;;;;;;;;;;;;;
1976;[715] GUNN B. M. (1976);samp. VV0153;;CAPE VERDE ISLANDS / SAO VICENTE;MADERAL SECTION;16.82;-24.93;16.82;-24.93;;;OUTCROP;;;SUBAERIAL;VOLCANIC ROCK;ANKARAMITE;;3 FT THICK LAVA BELOW VV0112;;;;;;;;WHOLE ROCK;;;;;;;;;;;;;;43.28;3.56;10.69;;;;13.42;;;;11.39;13.92;0.16;;;;;;1.29;XRF;;;1.94;XRF;;;0.35;;;;;;;;;;;;;;;;;;;;;;;;;;;;;;;;;;;;;;;;;;;;;;;;;;;;;;;;;;;;653;XRF;;;;;89.9;XRF;;;;;425.6;XRF;;;;;81.5;XRF;;;;;;;16;XRF;;;;;;35.8;XRF;;;701.9;XRF;;;;;;;;;;;;;;;;;;;;;;;;439.2;XRF;;;;;;;;;;;;;;;;;;;;;;;;;;;;;;;;;;;;;;;;;;;;;;;;;;;;;;;;;;;;;;0;XRF;;;;0;XRF;;;;;;;;;;;;;;;;;;;;;;;;;;;;;;;;;;;;;;;;;;;;;;;;;;;;;;;;;;;;;;;;;;;;;;;;;;;;;;;;;;;;;;;;;;;;;;;;;;;;;;;
1976;[715] GUNN B. M. (1976);samp. VV0033;;CAPE VERDE ISLANDS / SAO VICENTE;;16.87;-24.93;16.87;-24.93;;;OUTCROP;;;SUBAERIAL;VOLCANIC ROCK;ANKARAMITE;;20 FT THICK LAVA;;;;;;;;WHOLE ROCK;;;;;;;;;;;;;;38.64;4.11;10.18;;;;13.76;;;;15.75;13.47;0.17;;;;;;1.12;XRF;;;2.01;XRF;;;0.78;;;;;;;;;;;;;;;;;;;;;;;;;;;;;;;;;;;;;;;;;;;;;;;;;;;;;;;;;;;;550;XRF;;;;;82.1;XRF;;;;;335.4;XRF;;;;;53.7;XRF;;;;;;;14.5;XRF;;;;;;33.6;XRF;;;930.2;XRF;;;;;;;;;;;;;;;;;;;;;;;;334.4;XRF;;;;;;;;;;;;;;;;;;;;;;;;;;;;;;;;;;;;;;;;;;;;;;;;;;;;;;;;;;;;;;0;XRF;;;;0;XRF;;;;;;;;;;;;;;;;;;;;;;;;;;;;;;;;;;;;;;;;;;;;;;;;;;;;;;;;;;;;;;;;;;;;;;;;;;;;;;;;;;;;;;;;;;;;;;;;;;;;;;;
1976;[715] GUNN B. M. (1976);samp. VS0023;;CAPE VERDE ISLANDS / SAL;;16.82;-23;16.82;-23;;;OUTCROP;;;SUBAERIAL;VOLCANIC ROCK;ANKARAMITE;;;;;;;;;;WHOLE ROCK;;;;;;;;;;;;;;38.93;3.32;8.33;;;;13.33;;;;12.71;19.5;0.19;;;;;;1.06;XRF;;;2.04;XRF;;;0.57;;;;;;;;;;;;;;;;;;;;;;;;;;;;;;;;;;;;;;;;;;;;;;;;;;;;;;;;;;;;768.9;XRF;;;;;81.5;XRF;;;;;538.4;XRF;;;;;58.4;XRF;;;;;;;13.4;XRF;;;;;;25.1;XRF;;;663.9;XRF;;;;;;;;;;;;;;;;;;;;;;;;323.6;XRF;;;;;;;;;;;;;;;;;;;;;;;;;;;;;;;;;;;;;;;;;;;;;;;;;;;;;;;;;;;;;;4.3;XRF;;;;1.4;XRF;;;;;;;;;;;;;;;;;;;;;;;;;;;;;;;;;;;;;;;;;;;;;;;;;;;;;;;;;;;;;;;;;;;;;;;;;;;;;;;;;;;;;;;;;;;;;;;;;;;;;;;
1976;[715] GUNN B. M. (1976);samp. VS0032;;CAPE VERDE ISLANDS / SAL;;16.82;-22.93;16.82;-22.93;;;OUTCROP;;;SUBAERIAL;VOLCANIC ROCK;ANKARAMITE;COLUMNAR;PILE OF ISOLATED BASALTS;;;;;;;;WHOLE ROCK;;;;;;;;;;;;;;38.96;3.47;9.6;;;;13.18;;;;13.56;16.33;0.18;;;;;;1.2;XRF;;;2.76;XRF;;;0.76;;;;;;;;;;;;;;;;;;;;;;;;;;;;;;;;;;;;;;;;;;;;;;;;;;;;;;;;;;;;688;XRF;;;;;82.9;XRF;;;;;454.5;XRF;;;;;74.8;XRF;;;;;;;14.3;XRF;;;;;;29.2;XRF;;;904.8;XRF;;;;;;;;;;;;;;;;;;;;;;;;440.7;XRF;;;;;;;;;;;;;;;;;;;;;;;;;;;;;;;;;;;;;;;;;;;;;;;;;;;;;;;;;;;;;;0;XRF;;;;0;XRF;;;;;;;;;;;;;;;;;;;;;;;;;;;;;;;;;;;;;;;;;;;;;;;;;;;;;;;;;;;;;;;;;;;;;;;;;;;;;;;;;;;;;;;;;;;;;;;;;;;;;;;
1976;[715] GUNN B. M. (1976);samp. VS0043;;CAPE VERDE ISLANDS / SAL;RIM OF SALINE LAKE;16.75;-22.83;16.75;-22.83;;;OUTCROP;;;SUBAERIAL;VOLCANIC ROCK;ANKARAMITE;;FLOW;;;;;;;;WHOLE ROCK;;;;;;;;;;;;;;37.94;3.48;11.31;;;;12.97;;;;15.02;13.96;0.2;;;;;;0.55;XRF;;;2.91;XRF;;;1.66;;;;;;;;;;;;;;;;;;;;;;;;;;;;;;;;;;;;;;;;;;;;;;;;;;;;;;;;;;;;259.8;XRF;;;;;70.2;XRF;;;;;244.5;XRF;;;;;76.1;XRF;;;;;;;13.1;XRF;;;;;;22.3;XRF;;;1178.4;XRF;;;;;;;;;;;;;;;;;;;;;;;;538.9;XRF;;;;;;;;;;;;;;;;;;;;;;;;;;;;;;;;;;;;;;;;;;;;;;;;;;;;;;;;;;;;;;0;XRF;;;;0;XRF;;;;;;;;;;;;;;;;;;;;;;;;;;;;;;;;;;;;;;;;;;;;;;;;;;;;;;;;;;;;;;;;;;;;;;;;;;;;;;;;;;;;;;;;;;;;;;;;;;;;;;;
1976;[715] GUNN B. M. (1976);samp. FN0120;;FERNANDO DE NORONHA ARCHIPELAGO / FERNANDO DE NORONHA;ALMEIDA;-3.85;-32.42;-3.85;-32.42;;;OUTCROP;;;SUBAERIAL;VOLCANIC ROCK;ANKARAMITE;;DIKE;;;;;;;;WHOLE ROCK;;;;;;;;;;;;;;41.06;2.98;10.08;;;;12.71;;;;12.77;15.24;0.16;;;;;;1.25;XRF;;;3.06;XRF;;;0.69;;;;;;;;;;;;;;;;;;;;;;;;;;;;;;;;;;;;;;;;;;;;;;;;;;;;;;;;;;;;495.1;XRF;;;;;;;;;;;370.3;XRF;;;;;59.9;XRF;;;;;;;;;;;;;;26.1;XRF;;;856.1;XRF;;;;;;;;;;;;;;;;;;;;;;;;492.8;XRF;;;;;;;;;;;;;;;;;;;;;;;;;;;;;;;;;;;;;;;;;;;;;;;;;;;;;;;;;;;;;;3.1;XRF;;;;11.9;XRF;;;;;;;;;;;;;;;;;;;;;;;;;;;;;;;;;;;;;;;;;;;;;;;;;;;;;;;;;;;;;;;;;;;;;;;;;;;;;;;;;;;;;;;;;;;;;;;;;;;;;;;
1976;[715] GUNN B. M. (1976);samp. FN0170;;FERNANDO DE NORONHA ARCHIPELAGO / FERNANDO DE NORONHA;DIKE IN TRACHYTE;-3.85;-32.42;-3.85;-32.42;;;OUTCROP;;;SUBAERIAL;VOLCANIC ROCK;ANKARAMITE;;DIKE IN TRACHYTE;;;;;;;;WHOLE ROCK;;;;;;;;;;;;;;43.85;2.95;9.18;;;;12.6;;;;12.96;14.01;0.17;;;;;;0.96;XRF;;;2.74;XRF;;;0.57;;;;;;;;;;;;;;;;;;;;;;;;;;;;;;;;;;;;;;;;;;;;;;;;;;;;;;;;;;;;688;XRF;;;;;;;;;;;422.9;XRF;;;;;62.7;XRF;;;;;;;;;;;;;;39.2;XRF;;;792.8;XRF;;;;;;;;;;;;;;;;;;;;;;;;429.8;XRF;;;;;;;;;;;;;;;;;;;;;;;;;;;;;;;;;;;;;;;;;;;;;;;;;;;;;;;;;;;;;;5.3;XRF;;;;6;XRF;;;;;;;;;;;;;;;;;;;;;;;;;;;;;;;;;;;;;;;;;;;;;;;;;;;;;;;;;;;;;;;;;;;;;;;;;;;;;;;;;;;;;;;;;;;;;;;;;;;;;;;
1976;[715] GUNN B. M. (1976);samp. FN0172;;FERNANDO DE NORONHA ARCHIPELAGO / FERNANDO DE NORONHA;DIKE IN TRACHYTE;-3.85;-32.42;-3.85;-32.42;;;OUTCROP;;;SUBAERIAL;VOLCANIC ROCK;ANKARAMITE;;DIKE IN TRACHYTE;;;;;;;;WHOLE ROCK;;;;;;;;;;;;;;41.05;2.67;7.89;;;;14.44;;;;9.8;20.04;0.17;;;;;;1.01;XRF;;;2.38;XRF;;;0.54;;;;;;;;;;;;;;;;;;;;;;;;;;;;;;;;;;;;;;;;;;;;;;;;;;;;;;;;;;;;354.1;XRF;;;;;;;;;;;658;XRF;;;;;67.1;XRF;;;;;;;;;;;;;;40.5;XRF;;;713.1;XRF;;;;;;;;;;;;;;;;;;;;;;;;404.7;XRF;;;;;;;;;;;;;;;;;;;;;;;;;;;;;;;;;;;;;;;;;;;;;;;;;;;;;;;;;;;;;;4.5;XRF;;;;6.6;XRF;;;;;;;;;;;;;;;;;;;;;;;;;;;;;;;;;;;;;;;;;;;;;;;;;;;;;;;;;;;;;;;;;;;;;;;;;;;;;;;;;;;;;;;;;;;;;;;;;;;;;;;
1976;[715] GUNN B. M. (1976);samp. FN0130;;FERNANDO DE NORONHA ARCHIPELAGO / FERNANDO DE NORONHA / QUIXABA FORMATION;;-3.85;-32.42;-3.85;-32.42;;;OUTCROP;;;SUBAERIAL;VOLCANIC ROCK;ANKARAMITE;;;;;;;;;;WHOLE ROCK;;;;;;;;;;;;;;42.09;3.68;10.63;;;;13.78;;;;12.37;11.14;0.16;;;;;;0.79;XRF;;;4.26;XRF;;;1.1;;;;;;;;;;;;;;;;;;;;;;;;;;;;;;;;;;;;;;;;;;;;;;;;;;;;;;;;;;;;246.1;XRF;;;;;;;;;;;206.3;XRF;;;;;65.3;XRF;;;;;;;;;;;;;;16.3;XRF;;;1032.5;XRF;;;;;;;;;;;;;;;;;;;;;;;;718.1;XRF;;;;;;;;;;;;;;;;;;;;;;;;;;;;;;;;;;;;;;;;;;;;;;;;;;;;;;;;;;;;;;2.6;XRF;;;;10.3;XRF;;;;;;;;;;;;;;;;;;;;;;;;;;;;;;;;;;;;;;;;;;;;;;;;;;;;;;;;;;;;;;;;;;;;;;;;;;;;;;;;;;;;;;;;;;;;;;;;;;;;;;;