Year;CITATION;SAMPLE NAME;UNIQUE_ID;LOCATION;LOCATION COMMENT;LATITUDE (MIN.);LONGITUDE (MIN.);LATITUDE (MAX.);LONGITUDE (MAX.);ELEVATION (MIN.);ELEVATION (MAX.);SAMPLING TECHNIQUE;DRILLING DEPTH (MIN.);DRILLING DEPTH (MAX.);LAND/SEA (SAMPLING);ROCK TYPE;ROCK NAME;ROCK TEXTURE;SAMPLE COMMENT;AGE (MIN.);AGE (MAX.);GEOLOGICAL AGE;GEOLOGICAL AGE PREFIX;ERUPTION YEAR;ALTERATION;ALTERATION TYPE;TYPE OF MATERIAL;MINERAL / COMPONENT;SPOT (MINERAL);CRYSTAL;RIM / CORE (MINERAL GRAINS);GRAIN SIZE;PRIMARY/SECONDARY;INCLUSION TYPE;SPOT (INCLUSION);MINERAL (INCLUSION);RIM / CORE (INCLUSION);HOSTMINERAL (INCLUSION);HEATING;HEATING TEMPERATURE (?C);SIO2(WT%);TIO2(WT%);AL2O3(WT%);CR2O3(WT%);V2O3(WT%);V2O5(WT%);FE2O3T(WT%);FE2O3(WT%);FEOT(WT%);FEO(WT%);CAO(WT%);MGO(WT%);MNO(WT%);BAO(WT%);SRO(WT%);NIO(WT%);ZNO(WT%);COO(WT%);K2O(WT%);;;;NA2O(WT%);;;;P2O5(WT%);H2O(WT%);H2OP(WT%);H2OM(WT%);CO2(WT%);F(WT%);CL(WT%);CL2(WT%);SO3(WT%);S(WT%);LOI(WT%);O(WT%);SI(WT%);AL(WT%);TI(WT%);FE(WT%);MG(WT%);MN(WT%);CA(WT%);K(WT%): altern. values or methods;;;;NA(WT%);CR(WT%);NI(WT%);HE(CCMSTP/G);HE3(CCMSTP/G);HE4(CCMSTP/G): altern. values or methods;;;;LI(PPM);BE(PPM);B(PPM);F(PPM);NE20(CCMSTP/G);NE22(CCMSTP/G);P(PPM);S(PPM);CL(PPM);AR36(CCMSTP/G);AR40(CCMSTP/G);AR40(MOL/G): altern. values or methods;;;;AR40(PPB);K(PPM);SC(PPM): altern. values or methods;;;;;;TI(PPM);V(PPM): altern. values or methods;;;;CR(PPM): altern. values or methods;;;;MN(PPM);FE(PPM);CO(PPM): altern. values or methods;;;;;;NI(PPM): altern. values or methods;;;;;;CU(PPM): altern. values or methods;;;;ZN(PPM): altern. values or methods;;;;GA(PPM): altern. values or methods;;;;GE(PPM);AS(PPM);KR84(CCMSTP/G);RB(PPM): altern. values or methods;;;;SR(PPM): altern. values or methods;;;;Y(PPM): altern. values or methods;;;;ZR(PPM): altern. values or methods;;;;NB(PPM): altern. values or methods;;;;MO(PPM);RU(PPB);RH(PPB);PD(PPB);IN(PPM);SN(PPM);SB(PPM);XE132(CCMSTP/G);CS(PPM);BA(PPM): altern. values or methods;;;;LA(PPM): altern. values or methods;;;;CE(PPM): altern. values or methods;;;;PR(PPM): altern. values or methods;;;;ND(PPM): altern. values or methods;;;;SM(PPM): altern. values or methods;;;;EU(PPM): altern. values or methods;;;;GD(PPM);TB(PPM): altern. values or methods;;;;DY(PPM);HO(PPM);ER(PPM);TM(PPM);YB(PPM): altern. values or methods;;;;LU(PPM);HF(PPM): altern. values or methods;;;;TA(PPM);W(PPM);RE(PPB): altern. values or methods;;;;RE(PPT);OS(PPB): altern. values or methods;;;;OS(PPT);IR(PPB);PT(PPB);AU(PPB);HG(PPB);TL(PPM);PB(PPM): altern. values or methods;;;;PB210_ACT(DPM/G);TH(PPM): altern. values or methods;;;;TH(PPB);U(PPM): altern. values or methods;;;;U(PPB);CO2(PPM);H2O(PPM);ND143_ND144;ND148_ND144;SM147_ND144;SR87_SR86;RB87_SR86;PB206_PB204: altern. values or methods;;;;PB206_PB207;PB206_PB208;PB207_PB204: altern. values or methods;;;;PB207_PB206;PB208_PB204: altern. values or methods;;;;PB208_PB206;OS187_OS186;OS187_OS188: altern. values or methods;;;;RE187_OS188: altern. values or methods;;;;HF176_HF177;HE3_HE4;HE3_HE4(R/R(A)): altern. values or methods;;;;HE4_HE3: altern. values or methods;;;;;;HE4_HE3(R/R(A)): altern. values or methods;;;;AR38_AR36;AR40_AR36;NE20_NE22;NE21_NE22;XE129_XE132;PB206_U238;PB207_U235;PB210_U238;TH232_U238;U238_PB204;D13C(VS SMOW);D17O(VS VSMOW);D18O(PER MIL);D18O(VS PDB);D18O(VS SMOW);D18O(VS VSMOW);D34S(VS CDT);D44_40CA(VS SRM915A);D56FE(VS IRMM-014);DD(VS SMOW);ALBITE(MOL%);ACMITE(MOL%);ANORTHITE(MOL%);ENSTATITE(MOL%);FAYALITE(MOL%);FORSTERITE(MOL%);FERROSILITE(MOL%);HEMATITE(MOL%);LARNITE(MOL%);ORTHOCLASE(MOL%);PSEUDOBROOKITE(MOL%);TEPHROITE(MOL%);ULVOSPINEL(MOL%);WOLLASTONITE(MOL%);AGE(KA);AGE(MA): altern. values or methods;;;;;;;;AGE_PB207_PB206(MA);AGE_PB207_U235(MA);AGE_PB206_U238(MA);
1970;[1468] HAWKINS T. R. W. (1970);samp. NC15O;;JAN MAYEN / JAN MAYEN / NORD-JAN / NORDVESTKAPP FORMATION;KRATERLIA CLIFF, SOUTH OF NORDBUKTA;71;-8.5;71;-8.5;;;OUTCROP;;;SUBAERIAL;VOLCANIC ROCK;ANKARAMITE;;BROWN TITANSALITE FROM POTASH ANKARAMITES;;;;;;;;MINERAL / COMPONENT (INCL. GROUNDMASS);CLINOPYROXENE;;;;;PRIMARY;;;;;;;;51.28;0.91;3.37;0.15;;;;1.29;;3.42;23.01;16.03;0.13;;;0.01;;;0.02;EMP (EPMA);;;0.5;WET;;;;;;;;;;;;;;;;;;;;;;;;;;;;;;;;;;;;;;;;;;;;;;;;;;;;;;;;;;;;;;;;;;;;;;;;;;;;;;;;;;;;;;;;;;;;;;;;;;;;;;;;;;;;;;;;;;;;;;;;;;;;;;;;;;;;;;;;;;;;;;;;;;;;;;;;;;;;;;;;;;;;;;;;;;;;;;;;;;;;;;;;;;;;;;;;;;;;;;;;;;;;;;;;;;;;;;;;;;;;;;;;;;;;;;;;;;;;;;;;;;;;;;;;;;;;;;;;;;;;;;;;;;;;;;;;;;;;;;;;;;;;;;;;;;;;;;;;;
1970;[1468] HAWKINS T. R. W. (1970);samp. NC15P;;JAN MAYEN / JAN MAYEN / NORD-JAN / NORDVESTKAPP FORMATION;KRATERLIA CLIFF, SOUTH OF NORDBUKTA;71;-8.5;71;-8.5;;;OUTCROP;;;SUBAERIAL;VOLCANIC ROCK;ANKARAMITE;;BROWN TITANSALITE FROM POTASH ANKARAMITES;;;;;;;;MINERAL / COMPONENT (INCL. GROUNDMASS);CLINOPYROXENE;;;;;PRIMARY;;;;;;;;49.12;0.91;4.7;0.15;;;;1.29;;5.07;22.8;14.19;0.13;;;0.01;;;0.02;EMP (EPMA);;;0.5;WET;;;;;;;;;;;;;;;;;;;;;;;;;;;;;;;;;;;;;;;;;;;;;;;;;;;;;;;;;;;;;;;;;;;;;;;;;;;;;;;;;;;;;;;;;;;;;;;;;;;;;;;;;;;;;;;;;;;;;;;;;;;;;;;;;;;;;;;;;;;;;;;;;;;;;;;;;;;;;;;;;;;;;;;;;;;;;;;;;;;;;;;;;;;;;;;;;;;;;;;;;;;;;;;;;;;;;;;;;;;;;;;;;;;;;;;;;;;;;;;;;;;;;;;;;;;;;;;;;;;;;;;;;;;;;;;;;;;;;;;;;;;;;;;;;;;;;;;;;
1970;[1468] HAWKINS T. R. W. (1970);samp. NC19H;;JAN MAYEN / JAN MAYEN / NORD-JAN / STORFJELLET FORMATION;NORD-JAN,;71;-8.5;71;-8.5;;;OUTCROP;;;SUBAERIAL;VOLCANIC ROCK;ANKARAMITE;;BROWN TITANSALITE FROM ANKARAMITE;;;;;;;;MINERAL / COMPONENT (INCL. GROUNDMASS);CLINOPYROXENE;;;;;PRIMARY;;;;;;;;48.04;1.86;5.79;0.04;;;;1.29;;5.8;22.37;13.63;0.19;;;0.03;;;0.02;EMP (EPMA);;;0.5;WET;;;;;;;;;;;;;;;;;;;;;;;;;;;;;;;;;;;;;;;;;;;;;;;;;;;;;;;;;;;;;;;;;;;;;;;;;;;;;;;;;;;;;;;;;;;;;;;;;;;;;;;;;;;;;;;;;;;;;;;;;;;;;;;;;;;;;;;;;;;;;;;;;;;;;;;;;;;;;;;;;;;;;;;;;;;;;;;;;;;;;;;;;;;;;;;;;;;;;;;;;;;;;;;;;;;;;;;;;;;;;;;;;;;;;;;;;;;;;;;;;;;;;;;;;;;;;;;;;;;;;;;;;;;;;;;;;;;;;;;;;;;;;;;;;;;;;;;;;
1970;[1468] HAWKINS T. R. W. (1970);samp. NC19I;;JAN MAYEN / JAN MAYEN / NORD-JAN / STORFJELLET FORMATION;NORD-JAN,;71;-8.5;71;-8.5;;;OUTCROP;;;SUBAERIAL;VOLCANIC ROCK;ANKARAMITE;;;;;;;;;;MINERAL / COMPONENT (INCL. GROUNDMASS);CLINOPYROXENE;;;;;PRIMARY;;;;;;;;46.33;2.78;6.72;0.02;;;;1.29;;7.37;22.24;12.12;0.23;;;0.04;;;0.02;EMP (EPMA);;;0.5;WET;;;;;;;;;;;;;;;;;;;;;;;;;;;;;;;;;;;;;;;;;;;;;;;;;;;;;;;;;;;;;;;;;;;;;;;;;;;;;;;;;;;;;;;;;;;;;;;;;;;;;;;;;;;;;;;;;;;;;;;;;;;;;;;;;;;;;;;;;;;;;;;;;;;;;;;;;;;;;;;;;;;;;;;;;;;;;;;;;;;;;;;;;;;;;;;;;;;;;;;;;;;;;;;;;;;;;;;;;;;;;;;;;;;;;;;;;;;;;;;;;;;;;;;;;;;;;;;;;;;;;;;;;;;;;;;;;;;;;;;;;;;;;;;;;;;;;;;;;
1970;[1468] HAWKINS T. R. W. (1970);samp. NC15MATRIX;;JAN MAYEN / JAN MAYEN / NORD-JAN / NORDVESTKAPP FORMATION;KRATERLIA CLIFF, SOUTH OF NORDBUKTA;71;-8.5;71;-8.5;;;OUTCROP;;;SUBAERIAL;VOLCANIC ROCK;ANKARAMITE;;;;;;;;;;WHOLE ROCK;;;;;;;;;;;;;;46;2.86;14.21;0.02;;;;4.35;;6.82;13.1;7.5;0.17;0.01;;;;;1.9;NOT;;;2.4;NOT;;;0.53;;0.32;0.05;0.22;;;;;;;;;;;;;;;;;;;;;;;;;;;;;;;;;;;;;;;;;;;;;;;;;;;;;;;;;;;;;;;;;;;;;;;;;;;;;;;;;;;;;;;;;;;;;;;;;;;;;;;;;;;;;;;;;;;;;;;;;;;;;;;;;;;;;;;;;;;;;;;;;;;;;;;;;;;;;;;;;;;;;;;;;;;;;;;;;;;;;;;;;;;;;;;;;;;;;;;;;;;;;;;;;;;;;;;;;;;;;;;;;;;;;;;;;;;;;;;;;;;;;;;;;;;;;;;;;;;;;;;;;;;;;;;;;;;;;;;;;;;;;;;;;;
1970;[1468] HAWKINS T. R. W. (1970);samp. NC19MATRIX;;JAN MAYEN / JAN MAYEN / NORD-JAN / STORFJELLET FORMATION;NORD-JAN,;71;-8.5;71;-8.5;;;OUTCROP;;;SUBAERIAL;VOLCANIC ROCK;ANKARAMITE;;;;;;;;;;WHOLE ROCK;;;;;;;;;;;;;;46.11;2.94;14.84;0.02;;;;3.74;;7.9;12.3;6;0.15;0.2;;;;;2.2;NOT;;;2.55;NOT;;;0.64;;0.44;0.05;0.16;;;;;;;;;;;;;;;;;;;;;;;;;;;;;;;;;;;;;;;;;;;;;;;;;;;;;;;;;;;;;;;;;;;;;;;;;;;;;;;;;;;;;;;;;;;;;;;;;;;;;;;;;;;;;;;;;;;;;;;;;;;;;;;;;;;;;;;;;;;;;;;;;;;;;;;;;;;;;;;;;;;;;;;;;;;;;;;;;;;;;;;;;;;;;;;;;;;;;;;;;;;;;;;;;;;;;;;;;;;;;;;;;;;;;;;;;;;;;;;;;;;;;;;;;;;;;;;;;;;;;;;;;;;;;;;;;;;;;;;;;;;;;;;;;;
1928;[1483] LACROIX A. (1928);samp. 21;;AUSTRAL-COOK ISLANDS / TUBUAI;MATAURA;-23.33;-149.48;-23.33;-149.48;;;OUTCROP;;;SUBAERIAL;VOLCANIC ROCK;ANKARAMITE;;;;;;;;;;WHOLE ROCK;;;;;;;;;;;;;;42.6;2;8.61;;;;;4.91;;8.12;13.22;17.37;0.22;;;;;;0.55;NOT;;;0.95;NOT;;;0.2;;0.84;0.42;0.42;;;;;;;;;;;;;;;;;;;;;;;;;;;;;;;;;;;;;;;;;;;;;;;;;;;;;;;;;;;;;;;;;;;;;;;;;;;;;;;;;;;;;;;;;;;;;;;;;;;;;;;;;;;;;;;;;;;;;;;;;;;;;;;;;;;;;;;;;;;;;;;;;;;;;;;;;;;;;;;;;;;;;;;;;;;;;;;;;;;;;;;;;;;;;;;;;;;;;;;;;;;;;;;;;;;;;;;;;;;;;;;;;;;;;;;;;;;;;;;;;;;;;;;;;;;;;;;;;;;;;;;;;;;;;;;;;;;;;;;;;;;;;;;;;;
1965;[1487] FITCH F. J. (1965);samp. SJ15;;JAN MAYEN / JAN MAYEN;NORD-JAN, KROSS BUKTA;71.8;-8.1;71.8;-8.1;;;OUTCROP;;;SUBAERIAL;VOLCANIC ROCK;ANKARAMITE;;;;;PLEISTOCENE;;;;;WHOLE ROCK;;;;;;;;;;;;;;;;;;;;;;;;;;;;;;;;1.21;NOT;;;;;;;;;;;;;;;;;;;;;;;;;;;;;;;;;;;;;;;;;;;;;;;;;7.53E-06;;;;;;;;;;;;;;;;;;;;;;;;;;;;;;;;;;;;;;;;;;;;;;;;;;;;;;;;;;;;;;;;;;;;;;;;;;;;;;;;;;;;;;;;;;;;;;;;;;;;;;;;;;;;;;;;;;;;;;;;;;;;;;;;;;;;;;;;;;;;;;;;;;;;;;;;;;;;;;;;;;;;;;;;;;;;;;;;;;;;;;;;;;;;;;;;;;;;;;;;;;;;;;;;;;;;;;;;;;;;;;;;;;;;;;;;;;;;;;;;190;;;;;;;;;;;;
1985;[1503] STEINTHORSSON S. (1985);samp. SAL39;;ICELAND / ICELAND / EYJAFJLL;SOUTHEASTERN ZONE, HVAMMSMULI;63.5;-19.5;63.5;-19.5;;;OUTCROP;;;SUBAERIAL;VOLCANIC ROCK;ANKARAMITE;;;;;;;;;;WHOLE ROCK;;;;;;;;;;;;;;47.1;1.62;12.22;;;;;0.91;;8.13;12.34;15.04;0.19;;;;;;0.32;NOT;;;1.39;NOT;;;0.15;0.2;;;;;;;;;;;;;;;;;;;;;;;;;;;;;;;;;;;;;;;;;;;;;;;;;;;;;;;;;;;;;;;;;;;;;;;;;;;;;;;;;;;;;;;;;;;;8;NOT;;;235;NOT;;;8;NOT;;;110;NOT;;;;;;;;;;;;;;;;;;;;;;;;;;;;;;;;;;;;;;;;;;;;;;;;;;;;;;;;;;;;;;;;;;;;;;;;;;;;;;;;;;;;;;;;;;;;;;;;;;;;;;;;;;;;;;;;;;;;;;;;;;;;;;;;;;;;;;;;;;;;;;;;;;;;;;;;;;;;;;;;;;;;;;;;;;;;;;;;;;;;;;;;;;;;
1972;[1534] STEPHENSON P. J. (1972);samp. H54;;HEARD / HEARD;ROUND HILL, HIGHEST LAVA;-53;73.5;-53;73.5;;;OUTCROP;;;SUBAERIAL;VOLCANIC ROCK;ANKARAMITE;PORPHYRITIC;;;;;;;;;WHOLE ROCK;;;;;;;;;;;;;;43.56;4.37;9.15;;;;;4.03;;8.26;10.18;15.35;0.17;;;;;;1.91;NOT;;;2.42;NOT;;;0.62;;0.4;0.09;;;;;;;;;;;;;;;;;;;;;;;;;;;;;;;;;;;;;;;;;;;;;;;;;;;;;;;;;;;;;;;;;;;;;;;;;;;;;;;;;;;;;;;;;;;;;;;;;;;;;;;;;;;;;;;;;;;;;;;;;;;;;;;;;;;;;;;;;;;;;;;;;;;;;;;;;;;;;;;;;;;;;;;;;;;;;;;;;;;;;;;;;;;;;;;;;;;;;;;;;;;;;;;;;;;;;;;;;;;;;;;;;;;;;;;;;;;;;;;;;;;;;;;;;;;;;;;;;;;;;;;;;;;;;;;;;;;;;;;;;;;;;;;;;;;
1972;[1534] STEPHENSON P. J. (1972);samp. H55;;HEARD / HEARD;ROUND HILL, PILLOW LAVA;-53;73.5;-53;73.5;;;OUTCROP;;;SUBAERIAL;VOLCANIC ROCK;ANKARAMITE;PORPHYRITIC;PILLOW LAVA;;;;;;;;WHOLE ROCK;;;;;;;;;;;;;;43.8;3.98;8.44;;;;;1.64;;10.76;10;16.5;0.17;;;;;;1.78;NOT;;;2.04;NOT;;;0.48;;0.36;0.05;;;;;;;;;;;;;;;;;;;;;;;;;;;;;;;;;;;;;;;;;;;;;;;;;;;;;;;;;;;;;;;;;;;;;;;;;;;;;;;;;;;;;;;;;;;;;;;;;;;;;;;;;;;;;;;;;;;;;;;;;;;;;;;;;;;;;;;;;;;;;;;;;;;;;;;;;;;;;;;;;;;;;;;;;;;;;;;;;;;;;;;;;;;;;;;;;;;;;;;;;;;;;;;;;;;;;;;;;;;;;;;;;;;;;;;;;;;;;;;;;;;;;;;;;;;;;;;;;;;;;;;;;;;;;;;;;;;;;;;;;;;;;;;;;;;
1966;[1576] TATSUMOTO M. (1966);samp. HMC-8;4769;HAWAIIAN ISLANDS / HAWAII / MAUNA KEA;;19.83;-155.42;19.83;-155.42;;;OUTCROP;;;SUBAERIAL;VOLCANIC ROCK;ANKARAMITE;;;;;;;;;;WHOLE ROCK;;;;;;;;;;;;;;;;;;;;;;;;;;;;;;;;;;;;;;;;;;;;;;;;;;;;;;;;;;;;;;;;;;;;;;;;;;;;;;;;;;;;;;;;;;;;;;;;;;;;;;;;;;;;;;;;;;;;;;;;;;;;;;;;;;;;;;;;;;;;;;;;;;;;;;;;;;;;;;;;;;;;;;;;;;;;;;;;;;;;;;;;;;;;;;;;;;;;;;;;;;;;;;;;;;;;;;;;;;;;;;;;;1.33;MS_ID;;;;;;;;;0.4;MS_ID;;;;;;;;;;;18.5;TIMS;;;1.185;0.481;;;;;;;;;;;;;;;;;;;;;;;;;;;;;;;;;;;;;;;;;;;;;;;;;;;;;;;;;;;;;;;;;;;;;;;;;;;;;;;;;;
1966;[1576] TATSUMOTO M. (1966);samp. HMC-8;4769;HAWAIIAN ISLANDS / HAWAII / MAUNA KEA;;19.83;-155.42;19.83;-155.42;;;OUTCROP;;;SUBAERIAL;VOLCANIC ROCK;ANKARAMITE;;;;;;;;;;WHOLE ROCK;;;;;;;;;;;;;;;;;;;;;;;;;;;;;;;;;;;;;;;;;;;;;;;;;;;;;;;;;;;;;;;;;;;;;;;;;;;;;;;;;;;;;;;;;;;;;;;;;;;;;;;;;;;;;;;;;;;;;;;;;;;;;;;;;;;;;;;;;;;;;;;;;;;;;;;;;;;;;;;;;;;;;;;;;;;;;;;;;;;;;;;;;;;;;;;;;;;;;;;;;;;;;;;;;;;;;;;;;;;;;;;;;;;;;;1.18;MS_ID;;;;0.38;MS_ID;;;;;;;;;;;18.46;TIMS;;;1.186;0.483;;;;;;;;;;;;;;;;;;;;;;;;;;;;;;;;;;;;;;;;;;;;;;;;;;;;;;;;;;;;;;;;;;;;;;;;;;;;;;;;;;
1966;[1576] TATSUMOTO M. (1966);samp. HMC-8;4769;HAWAIIAN ISLANDS / HAWAII / MAUNA KEA;;19.83;-155.42;19.83;-155.42;;;OUTCROP;;;SUBAERIAL;VOLCANIC ROCK;ANKARAMITE;;;;;;;;;;WHOLE ROCK;;;;;;;;;;;;;;;;;;;;;;;;;;;;;;;;;;;;;;;;;;;;;;;;;;;;;;;;;;;;;;;;;;;;;;;;;;;;;;;;;;;;;;;;;;;;;;;;;;;;;;;;;;;;;;;;;;;;;;;;;;;;;;;;;;;;;;;;;;;;;;;;;;;;;;;;;;;;;;;;;;;;;;;;;;;;;;;;;;;;;;;;;;;;;;;;;;;;;;;;;;;;;;;;;;;;;;;;;;;;;;;;;;;;;;1.17;MS_ID;;;;0.41;MS_ID;;;;;;;;;;;18.44;TIMS;;;1.184;0.483;;;;;;;;;;;;;;;;;;;;;;;;;;;;;;;;;;;;;;;;;;;;;;;;;;;;;;;;;;;;;;;;;;;;;;;;;;;;;;;;;;
1966;[1576] TATSUMOTO M. (1966);samp. HMC-8;4769;HAWAIIAN ISLANDS / HAWAII / MAUNA KEA;;19.83;-155.42;19.83;-155.42;;;OUTCROP;;;SUBAERIAL;VOLCANIC ROCK;ANKARAMITE;;;;;;;;;;WHOLE ROCK;;;;;;;;;;;;;;;;;;;;;;;;;;;;;;;;;;;;;;;;;;;;;;;;;;;;;;;;;;;;;;;;;;;;;;;;;;;;;;;;;;;;;;;;;;;;;;;;;;;;;;;;;;;;;;;;;;;;;;;;;;;;;;;;;;;;;;;;;;;;;;;;;;;;;;;;;;;;;;;;;;;;;;;;;;;;;;;;;;;;;;;;;;;;;;;;;;;;;;;;;;;;;;;;;;;;;;;;;;;;;;;;;;;;;;;;;;;;;;;;;;;;;;;18.45;TIMS;;;1.185;0.482;;;;;;;;;;;;;;;;;;;;;;;;;;;;;;;;;;;;;;;;;;;;;;;;;;;;;;;;;;;;;;;;;;;;;;;;;;;;;;;;;;
1992;[1588] KONOVALOV YU. I. (1992);samp. 777-1;;WAKE SEAMOUNT GROUP / LAMONT GUYOT;;21.48;159.53;21.48;159.53;-1215;-1215;DREDGE;;;SUBAQUATIC;VOLCANIC ROCK;ANKARAMITE;;;;;;;;;;WHOLE ROCK;;;;;;;;;;;;;;36.9;4.1;13.94;;;;;8.44;;5.57;12.71;7.99;0.17;;;;;;0.71;NOT;;;1.23;NOT;;;0.85;;;2.52;;;;;;;4.33;;;;;;;;;;;;;;;;;;;;;;;;;;;;;;;;;;;;;;;;;;;;;;150;NOT;;;170;NOT;;;;;37;NOT;;;;;140;NOT;;;;;;;;;;;;;;;;;;;;16;NOT;;;270;NOT;;;;;;;233;NOT;;;;;;;;;;;;;;;;132;NOT;;;;;;;;;;;;;;;;;;;;;;;;;;;;;;;;;;;;;;;;;;;;;;;;;;;;;;;;;;;;;;;;;;;;;;;;;;;;;;;;;;;;;;;;;;;;;;;;;;;;;;;;;;;;;;;;;;;;;;;;;;;;;;;;;;;;;;;;;;;;;;;;;;;;;;;;;;;;;;;;;;;;;;;;;;;
1992;[1588] KONOVALOV YU. I. (1992);samp. 777-2;;WAKE SEAMOUNT GROUP / LAMONT GUYOT;;21.48;159.53;21.48;159.53;-1215;-1215;DREDGE;;;SUBAQUATIC;VOLCANIC ROCK;ANKARAMITE;;;;;;;;;;WHOLE ROCK;;;;;;;;;;;;;;36.81;4.08;12.77;;;;;11.4;;3.97;12.1;8.71;0.14;;;;;;0.67;NOT;;;0.79;NOT;;;1.16;;;2.95;;;;;;;4.08;;;;;;;;;;;;;;;;;;;;;;;;;;;;;;;;;;;;;;;;;;;;;;190;NOT;;;200;NOT;;;;;36;NOT;;;;;190;NOT;;;;;;;;;;;;;;;;;;;;21;NOT;;;326;NOT;;;;;;;234;NOT;;;;;;;;;;;;;;;;107;NOT;;;;;;;;;;;;;;;;;;;;;;;;;;;;;;;;;;;;;;;;;;;;;;;;;;;;;;;;;;;;;;;;;;;;;;;;;;;;;;;;;;;;;;;;;;;;;;;;;;;;;;;;;;;;;;;;;;;;;;;;;;;;;;;;;;;;;;;;;;;;;;;;;;;;;;;;;;;;;;;;;;;;;;;;;;;
1992;[1588] KONOVALOV YU. I. (1992);samp. 749-12;;WAKE SEAMOUNT GROUP / LAMONT GUYOT;;21.48;159.53;21.48;159.53;-1215;-1215;DREDGE;;;SUBAQUATIC;VOLCANIC ROCK;ANKARAMITE;;;;;;;;;;WHOLE ROCK;;;;;;;;;;;;;;39.07;3.84;14;;;;;12.26;;2.04;7.41;7.13;0.18;;;;;;1.12;NOT;;;2.23;NOT;;;1.68;;;3.71;;;;;;;5.48;;;;;;;;;;;;;;;;;;;;;;;;;;;;;;;;;;;;;;;;;;;;;;150;NOT;;;590;NOT;;;;;36;NOT;;;;;310;NOT;;;;;;;;;;;;;;;;;;;;6;NOT;;;1179;NOT;;;;;;;207;NOT;;;;;;;;;;;;;;;;802;NOT;;;;;;;;;;;;;;;;;;;;;;;;;;;;;;;;;;;;;;;;;;;;;;;;;;;;;;;;;;;;;;;;;;;;;;;;;;;;;;;;;;;;;;;;;;;;;;;;;;;;;;;;;;;;;;;;;;;;;;;;;;;;;;;;;;;;;;;;;;;;;;;;;;;;;;;;;;;;;;;;;;;;;;;;;;;
1992;[1588] KONOVALOV YU. I. (1992);samp. 768-13;;WAKE SEAMOUNT GROUP / LAMONT GUYOT;;21.48;159.53;21.48;159.53;-1215;-1215;DREDGE;;;SUBAQUATIC;VOLCANIC ROCK;ANKARAMITE;;;;;;;;;;WHOLE ROCK;;;;;;;;;;;;;;40;4.96;13.6;;;;;9.49;;5.01;11.3;8.06;0.17;;;;;;0.6;NOT;;;1.52;NOT;;;0.49;;;;;;;;;;4.65;;;;;;;;;;;;;;;;;;;;;;;;;;;;;;;;;;;;;;;;;;;;;;200;NOT;;;830;NOT;;;;;49;NOT;;;;;400;NOT;;;;;;;;;;;;;;;;;;;;0;NOT;;;434;NOT;;;;;;;176;NOT;;;;;;;;;;;;;;;;343;NOT;;;;;;;;;;;;;;;;;;;;;;;;;;;;;;;;;;;;;;;;;;;;;;;;;;;;;;;;;;;;;;;;;;;;;;;;;;;;;;;;;;;;;;;;;;;;;;;;;;;;;;;;;;;;;;;;;;;;;;;;;;;;;;;;;;;;;;;;;;;;;;;;;;;;;;;;;;;;;;;;;;;;;;;;;;;
1992;[1588] KONOVALOV YU. I. (1992);samp. 768-6;;WAKE SEAMOUNT GROUP / LAMONT GUYOT;;21.48;159.53;21.48;159.53;-1215;-1215;DREDGE;;;SUBAQUATIC;VOLCANIC ROCK;ANKARAMITE;;;;;;;;;;WHOLE ROCK;;;;;;;;;;;;;;40;5.25;12.2;;;;;9.81;;4.76;11.87;7.84;0.15;;;;;;0.91;NOT;;;1.57;NOT;;;0.61;;;2.39;;;;;;;3.36;;;;;;;;;;;;;;;;;;;;;;;;;;;;;;;;;;;;;;;;;;;;;;210;NOT;;;710;NOT;;;;;45;NOT;;;;;350;NOT;;;;;;;;;;;;;;;;;;;;18;NOT;;;384;NOT;;;;;;;224;NOT;;;;;;;;;;;;;;;;281;NOT;;;;;;;;;;;;;;;;;;;;;;;;;;;;;;;;;;;;;;;;;;;;;;;;;;;;;;;;;;;;;;;;;;;;;;;;;;;;;;;;;;;;;;;;;;;;;;;;;;;;;;;;;;;;;;;;;;;;;;;;;;;;;;;;;;;;;;;;;;;;;;;;;;;;;;;;;;;;;;;;;;;;;;;;;;;
1992;[1588] KONOVALOV YU. I. (1992);samp. 801-2;;WAKE SEAMOUNT GROUP / LAMONT GUYOT;;21.48;159.53;21.48;159.53;-1215;-1215;DREDGE;;;SUBAQUATIC;VOLCANIC ROCK;ANKARAMITE;;;;;;;;;;WHOLE ROCK;;;;;;;;;;;;;;40.15;4.75;15.3;;;;;9.48;;4.54;10.31;5.06;0.16;;;;;;1.07;NOT;;;1.67;NOT;;;1.06;;;2.8;;;;;;;3.59;;;;;;;;;;;;;;;;;;;;;;;;;;;;;;;;;;;;;;;;;;;;;;240;NOT;;;17;NOT;;;;;52;NOT;;;;;83;NOT;;;;;;;;;;;;;;;;;;;;16;NOT;;;590;NOT;;;;;;;310;NOT;;;;;;;;;;;;;;;;321;NOT;;;;;;;;;;;;;;;;;;;;;;;;;;;;;;;;;;;;;;;;;;;;;;;;;;;;;;;;;;;;;;;;;;;;;;;;;;;;;;;;;;;;;;;;;;;;;;;;;;;;;;;;;;;;;;;;;;;;;;;;;;;;;;;;;;;;;;;;;;;;;;;;;;;;;;;;;;;;;;;;;;;;;;;;;;;
1992;[1588] KONOVALOV YU. I. (1992);samp. 762-20;;WAKE SEAMOUNT GROUP / LAMONT GUYOT;;21.48;159.53;21.48;159.53;-1215;-1215;DREDGE;;;SUBAQUATIC;VOLCANIC ROCK;ANKARAMITE;;;;;;;;;;WHOLE ROCK;;;;;;;;;;;;;;40.3;2.23;12.75;;;;;9.9;;3.07;11.3;7.31;0.13;;;;;;1.85;NOT;;;1.86;NOT;;;2.98;;;;;;;;;;6.34;;;;;;;;;;;;;;;;;;;;;;;;;;;;;;;;;;;;;;;;;;;;;;130;NOT;;;490;NOT;;;;;35;NOT;;;;;370;NOT;;;;;;;;;;;;;;;;;;;;;;;;;;;;;;;;;;;;;;;;;;;;;;;;;;;;;;;;;;;;;;;;;;;;;;;;;;;;;;;;;;;;;;;;;;;;;;;;;;;;;;;;;;;;;;;;;;;;;;;;;;;;;;;;;;;;;;;;;;;;;;;;;;;;;;;;;;;;;;;;;;;;;;;;;;;;;;;;;;;;;;;;;;;;;;;;;;;;;;;;;;;;;;;;;;;;;;;;;;;;;
1992;[1588] KONOVALOV YU. I. (1992);samp. 762-5;;WAKE SEAMOUNT GROUP / LAMONT GUYOT;;21.48;159.53;21.48;159.53;-1215;-1215;DREDGE;;;SUBAQUATIC;VOLCANIC ROCK;ANKARAMITE;;;;;;;;;;WHOLE ROCK;;;;;;;;;;;;;;40.6;2.5;14.6;;;;;10.65;;1.21;9.26;4.46;0.1;;;;;;1.95;NOT;;;2.17;NOT;;;3.88;;;;;;;;;;7.95;;;;;;;;;;;;;;;;;;;;;;;;;;;;;;;;;;;;;;;;;;;;;;110;NOT;;;440;NOT;;;;;24;NOT;;;;;130;NOT;;;;;;;;;;;;;;;;;;;;0;NOT;;;677;NOT;;;;;;;167;NOT;;;;;;;;;;;;;;;;428;NOT;;;;;;;;;;;;;;;;;;;;;;;;;;;;;;;;;;;;;;;;;;;;;;;;;;;;;;;;;;;;;;;;;;;;;;;;;;;;;;;;;;;;;;;;;;;;;;;;;;;;;;;;;;;;;;;;;;;;;;;;;;;;;;;;;;;;;;;;;;;;;;;;;;;;;;;;;;;;;;;;;;;;;;;;;;;
1992;[1588] KONOVALOV YU. I. (1992);samp. 768-15;;WAKE SEAMOUNT GROUP / LAMONT GUYOT;;21.48;159.53;21.48;159.53;-1215;-1215;DREDGE;;;SUBAQUATIC;VOLCANIC ROCK;ANKARAMITE;;;;;;;;;;WHOLE ROCK;;;;;;;;;;;;;;41.68;2.68;14.8;;;;;12.35;;1.98;10.46;5.57;0.12;;;;;;1.14;NOT;;;1.58;NOT;;;0.94;;;2.64;;;;;;;3.65;;;;;;;;;;;;;;;;;;;;;;;;;;;;;;;;;;;;;;;;;;;;;;190;NOT;;;670;NOT;;;;;34;NOT;;;;;140;NOT;;;;;;;;;;;;;;;;;;;;21;NOT;;;505;NOT;;;;;;;176;NOT;;;;;;;;;;;;;;;;227;NOT;;;;;;;;;;;;;;;;;;;;;;;;;;;;;;;;;;;;;;;;;;;;;;;;;;;;;;;;;;;;;;;;;;;;;;;;;;;;;;;;;;;;;;;;;;;;;;;;;;;;;;;;;;;;;;;;;;;;;;;;;;;;;;;;;;;;;;;;;;;;;;;;;;;;;;;;;;;;;;;;;;;;;;;;;;;
1992;[1588] KONOVALOV YU. I. (1992);samp. 749-5;;WAKE SEAMOUNT GROUP / LAMONT GUYOT;;21.48;159.53;21.48;159.53;-1215;-1215;DREDGE;;;SUBAQUATIC;VOLCANIC ROCK;ANKARAMITE;;;;;;;;;;WHOLE ROCK;;;;;;;;;;;;;;41.8;3.44;12.3;;;;;8.5;;3.92;11.76;8.85;0.16;;;;;;0.47;NOT;;;2.36;NOT;;;1.03;;;;;;;;;;4.48;;;;;;;;;;;;;;;;;;;;;;;;;;;;;;;;;;;;;;;;;;;;;;150;NOT;;;720;NOT;;;;;41;NOT;;;;;290;NOT;;;;;;;;;;;;;;;;;;;;0;NOT;;;934;NOT;;;;;;;236;NOT;;;;;;;;;;;;;;;;733;NOT;;;;;;;;;;;;;;;;;;;;;;;;;;;;;;;;;;;;;;;;;;;;;;;;;;;;;;;;;;;;;;;;;;;;;;;;;;;;;;;;;;;;;;;;;;;;;;;;;;;;;;;;;;;;;;;;;;;;;;;;;;;;;;;;;;;;;;;;;;;;;;;;;;;;;;;;;;;;;;;;;;;;;;;;;;;
1992;[1588] KONOVALOV YU. I. (1992);samp. 768-A;;WAKE SEAMOUNT GROUP / LAMONT GUYOT;;21.48;159.53;21.48;159.53;-1215;-1215;DREDGE;;;SUBAQUATIC;VOLCANIC ROCK;ANKARAMITE;;;;;;;;;;WHOLE ROCK;;;;;;;;;;;;;;42.16;2.75;13.9;;;;;9.49;;3.73;12.6;6.51;0.15;;;;;;1;NOT;;;1.65;NOT;;;0.67;;;2.06;;;;;;;3.59;;;;;;;;;;;;;;;;;;;;;;;;;;;;;;;;;;;;;;;;;;;;;;210;NOT;;;710;NOT;;;;;45;NOT;;;;;350;NOT;;;;;;;;;;;;;;;;;;;;18;NOT;;;384;NOT;;;;;;;224;NOT;;;;;;;;;;;;;;;;281;NOT;;;;;;;;;;;;;;;;;;;;;;;;;;;;;;;;;;;;;;;;;;;;;;;;;;;;;;;;;;;;;;;;;;;;;;;;;;;;;;;;;;;;;;;;;;;;;;;;;;;;;;;;;;;;;;;;;;;;;;;;;;;;;;;;;;;;;;;;;;;;;;;;;;;;;;;;;;;;;;;;;;;;;;;;;;;