Year;CITATION;SAMPLE NAME;UNIQUE_ID;LOCATION;LOCATION COMMENT;LATITUDE (MIN.);LONGITUDE (MIN.);LATITUDE (MAX.);LONGITUDE (MAX.);ELEVATION (MIN.);ELEVATION (MAX.);SAMPLING TECHNIQUE;DRILLING DEPTH (MIN.);DRILLING DEPTH (MAX.);LAND/SEA (SAMPLING);ROCK TYPE;ROCK NAME;ROCK TEXTURE;SAMPLE COMMENT;AGE (MIN.);AGE (MAX.);GEOLOGICAL AGE;GEOLOGICAL AGE PREFIX;ERUPTION YEAR;ALTERATION;ALTERATION TYPE;TYPE OF MATERIAL;MINERAL / COMPONENT;SPOT (MINERAL);CRYSTAL;RIM / CORE (MINERAL GRAINS);GRAIN SIZE;PRIMARY/SECONDARY;INCLUSION TYPE;SPOT (INCLUSION);MINERAL (INCLUSION);RIM / CORE (INCLUSION);HOSTMINERAL (INCLUSION);HEATING;HEATING TEMPERATURE (?C);SIO2(WT%);TIO2(WT%);AL2O3(WT%);CR2O3(WT%);V2O3(WT%);V2O5(WT%);FE2O3T(WT%);FE2O3(WT%);FEOT(WT%);FEO(WT%);CAO(WT%);MGO(WT%);MNO(WT%);BAO(WT%);SRO(WT%);NIO(WT%);ZNO(WT%);COO(WT%);K2O(WT%);;;;NA2O(WT%);;;;P2O5(WT%);H2O(WT%);H2OP(WT%);H2OM(WT%);CO2(WT%);F(WT%);CL(WT%);CL2(WT%);SO3(WT%);S(WT%);LOI(WT%);O(WT%);SI(WT%);AL(WT%);TI(WT%);FE(WT%);MG(WT%);MN(WT%);CA(WT%);K(WT%): altern. values or methods;;;;NA(WT%);CR(WT%);NI(WT%);HE(CCMSTP/G);HE3(CCMSTP/G);HE4(CCMSTP/G): altern. values or methods;;;;LI(PPM);BE(PPM);B(PPM);F(PPM);NE20(CCMSTP/G);NE22(CCMSTP/G);P(PPM);S(PPM);CL(PPM);AR36(CCMSTP/G);AR40(CCMSTP/G);AR40(MOL/G): altern. values or methods;;;;AR40(PPB);K(PPM);SC(PPM): altern. values or methods;;;;;;TI(PPM);V(PPM): altern. values or methods;;;;CR(PPM): altern. values or methods;;;;MN(PPM);FE(PPM);CO(PPM): altern. values or methods;;;;;;NI(PPM): altern. values or methods;;;;;;CU(PPM): altern. values or methods;;;;ZN(PPM): altern. values or methods;;;;GA(PPM): altern. values or methods;;;;GE(PPM);AS(PPM);KR84(CCMSTP/G);RB(PPM): altern. values or methods;;;;SR(PPM): altern. values or methods;;;;Y(PPM): altern. values or methods;;;;ZR(PPM): altern. values or methods;;;;NB(PPM): altern. values or methods;;;;MO(PPM);RU(PPB);RH(PPB);PD(PPB);IN(PPM);SN(PPM);SB(PPM);XE132(CCMSTP/G);CS(PPM);BA(PPM): altern. values or methods;;;;LA(PPM): altern. values or methods;;;;CE(PPM): altern. values or methods;;;;PR(PPM): altern. values or methods;;;;ND(PPM): altern. values or methods;;;;SM(PPM): altern. values or methods;;;;EU(PPM): altern. values or methods;;;;GD(PPM);TB(PPM): altern. values or methods;;;;DY(PPM);HO(PPM);ER(PPM);TM(PPM);YB(PPM): altern. values or methods;;;;LU(PPM);HF(PPM): altern. values or methods;;;;TA(PPM);W(PPM);RE(PPB): altern. values or methods;;;;RE(PPT);OS(PPB): altern. values or methods;;;;OS(PPT);IR(PPB);PT(PPB);AU(PPB);HG(PPB);TL(PPM);PB(PPM): altern. values or methods;;;;PB210_ACT(DPM/G);TH(PPM): altern. values or methods;;;;TH(PPB);U(PPM): altern. values or methods;;;;U(PPB);CO2(PPM);H2O(PPM);ND143_ND144;ND148_ND144;SM147_ND144;SR87_SR86;RB87_SR86;PB206_PB204: altern. values or methods;;;;PB206_PB207;PB206_PB208;PB207_PB204: altern. values or methods;;;;PB207_PB206;PB208_PB204: altern. values or methods;;;;PB208_PB206;OS187_OS186;OS187_OS188: altern. values or methods;;;;RE187_OS188: altern. values or methods;;;;HF176_HF177;HE3_HE4;HE3_HE4(R/R(A)): altern. values or methods;;;;HE4_HE3: altern. values or methods;;;;;;HE4_HE3(R/R(A)): altern. values or methods;;;;AR38_AR36;AR40_AR36;NE20_NE22;NE21_NE22;XE129_XE132;PB206_U238;PB207_U235;PB210_U238;TH232_U238;U238_PB204;D13C(VS SMOW);D17O(VS VSMOW);D18O(PER MIL);D18O(VS PDB);D18O(VS SMOW);D18O(VS VSMOW);D34S(VS CDT);D44_40CA(VS SRM915A);D56FE(VS IRMM-014);DD(VS SMOW);ALBITE(MOL%);ACMITE(MOL%);ANORTHITE(MOL%);ENSTATITE(MOL%);FAYALITE(MOL%);FORSTERITE(MOL%);FERROSILITE(MOL%);HEMATITE(MOL%);LARNITE(MOL%);ORTHOCLASE(MOL%);PSEUDOBROOKITE(MOL%);TEPHROITE(MOL%);ULVOSPINEL(MOL%);WOLLASTONITE(MOL%);AGE(KA);AGE(MA): altern. values or methods;;;;;;;;AGE_PB207_PB206(MA);AGE_PB207_U235(MA);AGE_PB206_U238(MA);
1970;[3081] PHILPOTTS J. A. (1970);samp. HHP-66-19;34956;HAWAIIAN ISLANDS / HAWAII;;19.5;-155.5;19.5;-155.5;;;OUTCROP;;;SUBAERIAL;VOLCANIC ROCK;ANKARAMITE;;OCEANITIC;;;;;;;;MINERAL / COMPONENT (INCL. GROUNDMASS);PLAGIOCLASE;;PHENOCRYST;;;PRIMARY;;;;;;;;50.5;;32.4;;;;;;1.07;;15.25;0.67;;;;;;;;;;;2.29;NOT;;;;;;;;;;;;;;;;;;;;;;;;;;;;;;;;;;;;;;;;;;;;;;;;;;;1545;;;;;;;;;;;;;;;;;;;;;;;;;;;;;;;;;;;;;;;;;;;;;0.86;MS_ID;;;987;MS_ID;;;;;;;;;;;;;;;;;;;;;;;;58.2;MS_ID;;;;;;;;;;;;;;;;;;;;;;;;;;;;;;;;;;;;;;;;;;;;;;;;;;;;;;;;;;;;;;;;;;;;;;;;;;;;;;;;;;;;;;;;;;;;;;;;;;;;;;;;;;;;;;;;;;;;;;;;;;;;;;;;;;;;;;;;;;;;;;;;;;;;;;;;;;;;;;;;;;;;;;;;;;;
1970;[3081] PHILPOTTS J. A. (1970);samp. HHP-66-19;34956;HAWAIIAN ISLANDS / HAWAII;;19.5;-155.5;19.5;-155.5;;;OUTCROP;;;SUBAERIAL;VOLCANIC ROCK;ANKARAMITE;;OCEANITIC;;;;;;;;MINERAL / COMPONENT (INCL. GROUNDMASS);CLINOPYROXENE;;PHENOCRYST;RIM;;PRIMARY;;;;;;;;51;1.1;4.1;;;;;;6.2;;20;15.2;0.11;;;;;;;;;;0.3;NOT;;;;;;;;;;;;;;;;;;;;;;;;;;;;;;;;;;;;;;;;;;;;;;;;;;;524;;;;;;;;;;;;;;;;;;;;;;;;;;;;;;;;;;;;;;;;;;;;;0.57;MS_ID;;;81.6;MS_ID;;;;;;;;;;;;;;;;;;;;;;;;10.2;MS_ID;;;;;;;;;;;;;;;;;;;;;;;;;;;;;;;;;;;;;;;;;;;;;;;;;;;;;;;;;;;;;;;;;;;;;;;;;;;;;;;;;;;;;;;;;;;;;;;;;;;;;;;;;;;;;;;;;;;;;;;;;;;;;;;;;;;;;;;;;;;;;;;;;;;;;;;;;;;;;;;;;;;;;;;;;;;
1970;[3081] PHILPOTTS J. A. (1970);samp. HHP-66-19;34956;HAWAIIAN ISLANDS / HAWAII;;19.5;-155.5;19.5;-155.5;;;OUTCROP;;;SUBAERIAL;VOLCANIC ROCK;ANKARAMITE;;OCEANITIC;;;;;;;;MINERAL / COMPONENT (INCL. GROUNDMASS);CLINOPYROXENE;;PHENOCRYST;CORE;;PRIMARY;;;;;;;;51.2;0.95;3.78;;;;;2.17;;3.38;19.7;15.7;0.11;;;;;;;;;;0.25;NOT;;;;;;;;;;;;;;;;;;;;;;;;;;;;;;;;;;;;;;;;;;;;;;;;;;;270;;;;;;;;;;;;;;;;;;;;;;;;;;;;;;;;;;;;;;;;;;;;;0.24;MS_ID;;;64.4;MS_ID;;;;;;;;;;;;;;;;;;;;;;;;5;MS_ID;;;;;;;;;;;;;;;;;;;;;;;;;;;;;;;;;;;;;;;;;;;;;;;;;;;;;;;;;;;;;;;;;;;;;;;;;;;;;;;;;;;;;;;;;;;;;;;;;;;;;;;;;;;;;;;;;;;;;;;;;;;;;;;;;;;;;;;;;;;;;;;;;;;;;;;;;;;;;;;;;;;;;;;;;;;
1970;[3081] PHILPOTTS J. A. (1970);samp. HHP-66-19;34956;HAWAIIAN ISLANDS / HAWAII;;19.5;-155.5;19.5;-155.5;;;OUTCROP;;;SUBAERIAL;VOLCANIC ROCK;ANKARAMITE;;OCEANITIC;;;;;;;;MINERAL / COMPONENT (INCL. GROUNDMASS);OLIVINE;;PHENOCRYST;;;PRIMARY;;;;;;;;39.3;0.29;0;;;;;5.72;;11.37;0.68;43.6;0.23;;;;;;;;;;0.013;NOT;;;;;;;;;;;;;;;;;;;;;;;;;;;;;;;;;;;;;;;;;;;;;;;;;;;52.8;;;;;;;;;;;;;;;;;;;;;;;;;;;;;;;;;;;;;;;;;;;;;0.12;MS_ID;;;5.22;MS_ID;;;;;;;;;;;;;;;;;;;;;;;;1.95;MS_ID;;;;;;;;;;;;;;;;;;;;;;;;;;;;;;;;;;;;;;;;;;;;;;;;;;;;;;;;;;;;;;;;;;;;;;;;;;;;;;;;;;;;;;;;;;;;;;;;;;;;;;;;;;;;;;;;;;;;;;;;;;;;;;;;;;;;;;;;;;;;;;;;;;;;;;;;;;;;;;;;;;;;;;;;;;;
1970;[3081] PHILPOTTS J. A. (1970);samp. GSFC25;43977;SOCIETY ISLANDS / TAHITI;FANTANA CREEK;-17.62;-149.47;-17.62;-149.47;530;530;OUTCROP;;;SUBAQUATIC;VOLCANIC ROCK;ANKARAMITE;PORPHYRITIC;OCEANITIC;;;;;;FRESH;;MINERAL / COMPONENT (INCL. GROUNDMASS);GROUNDMASS;;;;;PRIMARY;;;;;;;;;;;;;;;;;;;;;;;;;;;;;;;;;;;;;;;;;;;;;;;;;;;;;;;;;;;;;;;;;;;;;;;;;;;;;;;;;;14400;;;;;;;;;;;;;;;;;;;;;;;;;;;;;;;;;;;;;;;;;;;;;43.3;MS_ID;;;752;MS_ID;;;;;;;;;;;;;;;;;;;;;;;;451;MS_ID;;;;;;;;;;;;;;;;;;;;;;;;;;;;;;;;;;;;;;;;;;;;;;;;;;;;;;;;;;;;;;;;;;;;;;;;;;;;;;;;;;;;;;;;;;;;;;;;;;;;;;;;;;;;;;;;;;;;;;;;;;;;;;;;;;;;;;;;;;;;;;;;;;;;;;;;;;;;;;;;;;;;;;;;;;;
1970;[3081] PHILPOTTS J. A. (1970);samp. GSFC25;43977;SOCIETY ISLANDS / TAHITI;FANTANA CREEK;-17.62;-149.47;-17.62;-149.47;530;530;OUTCROP;;;SUBAQUATIC;VOLCANIC ROCK;ANKARAMITE;PORPHYRITIC;OCEANITIC;;;;;;FRESH;;MINERAL / COMPONENT (INCL. GROUNDMASS);CLINOPYROXENE;;PHENOCRYST;INTERMEDIATE ZONE;;PRIMARY;;;;;;;;52;1.6;5.06;;;;;2.07;;4.01;20.4;14.5;0.1;;;;;;;;;;0.35;NOT;;;;;;;;;;;;;;;;;;;;;;;;;;;;;;;;;;;;;;;;;;;;;;;;;;;646;;;;;;;;;;;;;;;;;;;;;;;;;;;;;;;;;;;;;;;;;;;;;1.41;MS_ID;;;96.2;MS_ID;;;;;;;;;;;;;;;;;;;;;;;;14;MS_ID;;;;;;;;;;;;;;;;;;;;;;;;;;;;;;;;;;;;;;;;;;;;;;;;;;;;;;;;;;;;;;;;;;;;;;;;;;;;;;;;;;;;;;;;;;;;;;;;;;;;;;;;;;;;;;;;;;;;;;;;;;;;;;;;;;;;;;;;;;;;;;;;;;;;;;;;;;;;;;;;;;;;;;;;;;;
1970;[3081] PHILPOTTS J. A. (1970);samp. GSFC25;43977;SOCIETY ISLANDS / TAHITI;FANTANA CREEK;-17.62;-149.47;-17.62;-149.47;530;530;OUTCROP;;;SUBAQUATIC;VOLCANIC ROCK;ANKARAMITE;PORPHYRITIC;OCEANITIC;;;;;;FRESH;;MINERAL / COMPONENT (INCL. GROUNDMASS);CLINOPYROXENE;;PHENOCRYST;CORE;;PRIMARY;;;;;;;;51;1.2;3.9;;;;;;4.8;;20;15.5;0.1;;;;;;;;;;0.36;NOT;;;;;;;;;;;;;;;;;;;;;;;;;;;;;;;;;;;;;;;;;;;;;;;;;;;421;;;;;;;;;;;;;;;;;;;;;;;;;;;;;;;;;;;;;;;;;;;;;0.63;MS_ID;;;79;MS_ID;;;;;;;;;;;;;;;;;;;;;;;;8.98;MS_ID;;;;;;;;;;;;;;;;;;;;;;;;;;;;;;;;;;;;;;;;;;;;;;;;;;;;;;;;;;;;;;;;;;;;;;;;;;;;;;;;;;;;;;;;;;;;;;;;;;;;;;;;;;;;;;;;;;;;;;;;;;;;;;;;;;;;;;;;;;;;;;;;;;;;;;;;;;;;;;;;;;;;;;;;;;;
1970;[3081] PHILPOTTS J. A. (1970);samp. GSFC25;43977;SOCIETY ISLANDS / TAHITI;FANTANA CREEK;-17.62;-149.47;-17.62;-149.47;530;530;OUTCROP;;;SUBAQUATIC;VOLCANIC ROCK;ANKARAMITE;PORPHYRITIC;OCEANITIC;;;;;;FRESH;;MINERAL / COMPONENT (INCL. GROUNDMASS);CLINOPYROXENE;;PHENOCRYST;RIM;;PRIMARY;;;;;;;;48;1.8;6;;;;;;8;;18;13.7;0.1;;;;;;;;;;0.7;NOT;;;;;;;;;;;;;;;;;;;;;;;;;;;;;;;;;;;;;;;;;;;;;;;;;;;3930;;;;;;;;;;;;;;;;;;;;;;;;;;;;;;;;;;;;;;;;;;;;;12.3;MS_ID;;;323;MS_ID;;;;;;;;;;;;;;;;;;;;;;;;175;MS_ID;;;;;;;;;;;;;;;;;;;;;;;;;;;;;;;;;;;;;;;;;;;;;;;;;;;;;;;;;;;;;;;;;;;;;;;;;;;;;;;;;;;;;;;;;;;;;;;;;;;;;;;;;;;;;;;;;;;;;;;;;;;;;;;;;;;;;;;;;;;;;;;;;;;;;;;;;;;;;;;;;;;;;;;;;;;
1970;[3081] PHILPOTTS J. A. (1970);samp. GSFC25;43977;SOCIETY ISLANDS / TAHITI;FANTANA CREEK;-17.62;-149.47;-17.62;-149.47;530;530;OUTCROP;;;SUBAQUATIC;VOLCANIC ROCK;ANKARAMITE;PORPHYRITIC;OCEANITIC;;;;;;FRESH;;MINERAL / COMPONENT (INCL. GROUNDMASS);OLIVINE;;PHENOCRYST;;;PRIMARY;;;;;;;;39;0.06;0.05;;;;;3.93;;14.93;0.51;41.5;0.26;;;;;;;;;;0.005;NOT;;;;;;;;;;;;;;;;;;;;;;;;;;;;;;;;;;;;;;;;;;;;;;;;;;;80.7;;;;;;;;;;;;;;;;;;;;;;;;;;;;;;;;;;;;;;;;;;;;;0.49;MS_ID;;;13.9;MS_ID;;;;;;;;;;;;;;;;;;;;;;;;5.12;MS_ID;;;;;;;;;;;;;;;;;;;;;;;;;;;;;;;;;;;;;;;;;;;;;;;;;;;;;;;;;;;;;;;;;;;;;;;;;;;;;;;;;;;;;;;;;;;;;;;;;;;;;;;;;;;;;;;;;;;;;;;;;;;;;;;;;;;;;;;;;;;;;;;;;;;;;;;;;;;;;;;;;;;;;;;;;;;
1968;[3082] SCHNETZLER C. C. (1968);samp. GSFC25;43977;SOCIETY ISLANDS / TAHITI;FANTANA CREEK;-17.62;-149.47;-17.62;-149.47;530;530;OUTCROP;;;SUBAQUATIC;VOLCANIC ROCK;ANKARAMITE;PORPHYRITIC;OCEANITIC;;;;;;FRESH;;MINERAL / COMPONENT (INCL. GROUNDMASS);GROUNDMASS;;;;;PRIMARY;;;;;;;;46.72;3.44;15.81;;;;;4.99;;6.32;10.47;6.06;0.14;;;;;;1.55;WET;;;2.73;WET;;;0.59;;1.02;0.3;;;;;;;;;;;;;;;;;;;;;;;;;;;;;;;;;;;;;;;;;;;;;;;;;;;;;;;;;;;;;;;;;;;;;;;;;;;;;;;;;;;;;;;;;;;;;;;;;;;;;;;;;;;;;;;;;;;;;;;451;WET;;;;;;;86.9;WET;;;;;;;54;WET;;;11.6;WET;;;3.05;WET;;;;;;;;6.96;;2.81;;2.2;WET;;;;;;;;;;;;;;;;;;;;;;;;;;;;;;;;;;;;;;;;;;;;;;;;;;;;;;;;;;;;;;;;;;;;;;;;;;;;;;;;;;;;;;;;;;;;;;;;;;;;;;;;;;;;;;;;;;;;;;;;;;;;;;;;;;;;;;
1968;[3082] SCHNETZLER C. C. (1968);samp. GSFC25;43977;SOCIETY ISLANDS / TAHITI;FANTANA CREEK;-17.62;-149.47;-17.62;-149.47;530;530;OUTCROP;;;SUBAQUATIC;VOLCANIC ROCK;ANKARAMITE;PORPHYRITIC;OCEANITIC;;;;;;FRESH;;MINERAL / COMPONENT (INCL. GROUNDMASS);CLINOPYROXENE;;PHENOCRYST;RIM;;PRIMARY;;;;;;;;50;1.8;4.5;0.6;;;6.4;;;;22;14.5;0.08;;;;;;;;;;0.36;EMP (EPMA);;;;;;;;;;;;;;;;;;;;;;;;;;;;;;;;;;;;;;;;;;;;;;;;;;;;;;;;;;;;;;;;;;;;;;;;;;;;;;;;;;;;;;;;;;;;;;;;;;;;;;;;;;;;;;;;;;;;;;;;;;;;;175;EMP (EPMA);;;;;;;47.5;EMP (EPMA);;;;;;;23.5;EMP (EPMA);;;5.9;EMP (EPMA);;;1.68;EMP (EPMA);;;4.99;;;;;3.52;;1.41;;1.06;EMP (EPMA);;;;;;;;;;;;;;;;;;;;;;;;;;;;;;;;;;;;;;;;;;;;;;;;;;;;;;;;;;;;;;;;;;;;;;;;;;;;;;;;;;;;;;;;;;;;;;;;;;;;;;;;;;;;;;;;;;;;;;;;;;;;;;;;;;;;;;
1968;[3082] SCHNETZLER C. C. (1968);samp. GSFC25;43977;SOCIETY ISLANDS / TAHITI;FANTANA CREEK;-17.62;-149.47;-17.62;-149.47;530;530;OUTCROP;;;SUBAQUATIC;VOLCANIC ROCK;ANKARAMITE;PORPHYRITIC;OCEANITIC;;;;;;FRESH;;MINERAL / COMPONENT (INCL. GROUNDMASS);CLINOPYROXENE;;PHENOCRYST;INTERMEDIATE ZONE;;PRIMARY;;;;;;;;49;1.5;4;0.7;;;5.8;;;;22;15;0.07;;;;;;;;;;0.32;EMP (EPMA);;;;;;;;;;;;;;;;;;;;;;;;;;;;;;;;;;;;;;;;;;;;;;;;;;;;;;;;;;;;;;;;;;;;;;;;;;;;;;;;;;;;;;;;;;;;;;;;;;;;;;;;;;;;;;;;;;;;;;;;;;;;;14.04;EMP (EPMA);;;;;;;15.4;EMP (EPMA);;;;;;;17.1;EMP (EPMA);;;5.03;EMP (EPMA);;;1.46;EMP (EPMA);;;5.03;;;;;3.92;;1.48;;1.06;EMP (EPMA);;;;;;;;;;;;;;;;;;;;;;;;;;;;;;;;;;;;;;;;;;;;;;;;;;;;;;;;;;;;;;;;;;;;;;;;;;;;;;;;;;;;;;;;;;;;;;;;;;;;;;;;;;;;;;;;;;;;;;;;;;;;;;;;;;;;;;
1968;[3082] SCHNETZLER C. C. (1968);samp. GSFC25;43977;SOCIETY ISLANDS / TAHITI;FANTANA CREEK;-17.62;-149.47;-17.62;-149.47;530;530;OUTCROP;;;SUBAQUATIC;VOLCANIC ROCK;ANKARAMITE;PORPHYRITIC;OCEANITIC;;;;;;FRESH;;MINERAL / COMPONENT (INCL. GROUNDMASS);CLINOPYROXENE;;PHENOCRYST;CORE;;PRIMARY;;;;;;;;49;1.1;3.5;0.8;;;4.9;;;;22;16.3;0.07;;;;;;0.04;EMP (EPMA);;;0.32;EMP (EPMA);;;;;;;;;;;;;;;;;;;;;;;;;;;;;;;;;;;;;;;;;;;;;;;;;;;;;;;;;;;;;;;;;;;;;;;;;;;;;;;;;;;;;;;;;;;;;;;;;;;;;;;;;;;;;;;;;;;;;;;;;;;;;8.98;EMP (EPMA);;;;;;;12;EMP (EPMA);;;;;;;12.5;EMP (EPMA);;;3.81;EMP (EPMA);;;1.12;EMP (EPMA);;;3.95;;;;;2.92;;1.11;;0.79;EMP (EPMA);;;;;;;;;;;;;;;;;;;;;;;;;;;;;;;;;;;;;;;;;;;;;;;;;;;;;;;;;;;;;;;;;;;;;;;;;;;;;;;;;;;;;;;;;;;;;;;;;;;;;;;;;;;;;;;;;;;;;;;;;;;;;;;;;;;;;;
1968;[3082] SCHNETZLER C. C. (1968);samp. GSFC25;43977;SOCIETY ISLANDS / TAHITI;FANTANA CREEK;-17.62;-149.47;-17.62;-149.47;530;530;OUTCROP;;;SUBAQUATIC;VOLCANIC ROCK;ANKARAMITE;PORPHYRITIC;OCEANITIC;;;;;;FRESH;;MINERAL / COMPONENT (INCL. GROUNDMASS);OLIVINE;;;;;PRIMARY;;;;;;;;40.2;;;;;;17.5;;;;;41;;;;;;;;;;;;;;;;;;;;;;;;;;;;;;;;;;;;;;;;;;;;;;;;;;;;;;;;;;;;;;;;;;;;;;;;;;;;;;;;;;;;;;;;;;;;;;;;;;;;;;;;;;;;;;;;;;;;;;;;;;;;;;;;;;;;;;;;;5.12;EMP (EPMA);;;;;;;0.79;EMP (EPMA);;;;;;;0.36;EMP (EPMA);;;0.073;EMP (EPMA);;;0.019;EMP (EPMA);;;;;;;;0.063;;0.026;;;;;;;;;;;;;;;;;;;;;;;;;;;;;;;;;;;;;;;;;;;;;;;;;;;;;;;;;;;;;;;;;;;;;;;;;;;;;;;;;;;;;;;;;;;;;;;;;;;;;;;;;;;;;;;;;;;;;;;;;;;;;;;;;;;;;;;;;
1968;[3082] SCHNETZLER C. C. (1968);samp. GSFCHHP-66-19;;HAWAIIAN ISLANDS / HAWAII / MAUNA KEA;WEST FLANK NEAR POOPOO CREEK;19.85;-154.58;19.85;-154.58;-1600;-3000;OUTCROP;;;SUBAQUATIC;VOLCANIC ROCK;ANKARAMITE;PORPHYRITIC, VERY FINE-GRAINED MATRIX;OCEANITIC;;;;;;FRESH;;MINERAL / COMPONENT (INCL. GROUNDMASS);PLAGIOCLASE;;;;;PRIMARY;;;;;;;;;;;;;;;;;;;;;;;;;;;;;;;;;;;;;;;;;;;;;;;;;;;;;;;;;;;;;;;;;;;;;;;;;;;;;;;;;;;;;;;;;;;;;;;;;;;;;;;;;;;;;;;;;;;;;;;;;;;;;;;;;;;;;;;;;;;;;;;;;;;;;;;;;;;;58.2;EMP (EPMA);;;;;;;4.92;EMP (EPMA);;;;;;;3.98;EMP (EPMA);;;0.821;EMP (EPMA);;;0.85;EMP (EPMA);;;;;;;;0.507;;;;;;;;;;;;;;;;;;;;;;;;;;;;;;;;;;;;;;;;;;;;;;;;;;;;;;;;;;;;;;;;;;;;;;;;;;;;;;;;;;;;;;;;;;;;;;;;;;;;;;;;;;;;;;;;;;;;;;;;;;;;;;;;;;;;;;;;;;;
1968;[3082] SCHNETZLER C. C. (1968);samp. GSFCHHP-66-19;;HAWAIIAN ISLANDS / HAWAII / MAUNA KEA;WEST FLANK NEAR POOPOO CREEK;19.85;-154.58;19.85;-154.58;-1600;-3000;OUTCROP;;;SUBAQUATIC;VOLCANIC ROCK;ANKARAMITE;PORPHYRITIC, VERY FINE-GRAINED MATRIX;OCEANITIC;;;;;;FRESH;;MINERAL / COMPONENT (INCL. GROUNDMASS);GROUNDMASS;;;;;PRIMARY;;;;;;;;;;;;;;;;;;;;;;;;;;;;;;;;;;;;;;;;;;;;;;;;;;;;;;;;;;;;;;;;;;;;;;;;;;;;;;;;;;;;;;;;;;;;;;;;;;;;;;;;;;;;;;;;;;;;;;;;;;;;;;;;;;;;;;;;;;;;;;;;;;;;;;;;;;;;221;WET;;;;;;;60;WET;;;;;;;34.8;WET;;;8.14;WET;;;2.45;WET;;;7.27;;;;;5.74;;2.68;;2.05;WET;;;;;;;;;;;;;;;;;;;;;;;;;;;;;;;;;;;;;;;;;;;;;;;;;;;;;;;;;;;;;;;;;;;;;;;;;;;;;;;;;;;;;;;;;;;;;;;;;;;;;;;;;;;;;;;;;;;;;;;;;;;;;;;;;;;;;;
1968;[3082] SCHNETZLER C. C. (1968);samp. GSFCHHP-66-19;;HAWAIIAN ISLANDS / HAWAII / MAUNA KEA;WEST FLANK NEAR POOPOO CREEK;19.85;-154.58;19.85;-154.58;-1600;-3000;OUTCROP;;;SUBAQUATIC;VOLCANIC ROCK;ANKARAMITE;PORPHYRITIC, VERY FINE-GRAINED MATRIX;OCEANITIC;;;;;;FRESH;;MINERAL / COMPONENT (INCL. GROUNDMASS);CLINOPYROXENE;;;;;PRIMARY;;;;;;;;;;;;;;;;;;;;;;;;;;;;;;;;;;;;;;;;;;;;;;;;;;;;;;;;;;;;;;;;;;;;;;;;;;;;;;;;;;;;;;;;;;;;;;;;;;;;;;;;;;;;;;;;;;;;;;;;;;;;;;;;;;;;;;;;;;;;;;;;;;;;;;;;;;;;10.2;EMP (EPMA);;;;;;;7.02;EMP (EPMA);;;;;;;8.94;EMP (EPMA);;;3.09;EMP (EPMA);;;0.966;EMP (EPMA);;;3.36;;;;;2.89;;1.23;;0.876;EMP (EPMA);;;;;;;;;;;;;;;;;;;;;;;;;;;;;;;;;;;;;;;;;;;;;;;;;;;;;;;;;;;;;;;;;;;;;;;;;;;;;;;;;;;;;;;;;;;;;;;;;;;;;;;;;;;;;;;;;;;;;;;;;;;;;;;;;;;;;;
1984;[3286] THIRLWALL M. F. (1984);samp. 454;38236;LESSER ANTILLES / LESSER ANTILLES / GRENADA / MOUNT MORITZ;MT. MAITLAND;12;-61.5;12.25;-61.75;;;OUTCROP;;;SUBAERIAL;VOLCANIC ROCK;ANKARAMITE;;;;;;;;;;WHOLE ROCK;;;;;;;;;;;;;;47.42;0.965;15.67;;;;;11.17;;;14.37;7.07;0.171;;;;;;0.641;XRF;;;2.16;XRF;;;0.126;;;;;;;;;;0.47;;;;;;;;;;;;;;;;;;;;;;;;;;;;;;;;;;;;;;;46;XRF;;;;;;333;XRF;;;75;XRF;;;;;;;;;;;49;XRF;;;;;179;XRF;;;62;XRF;;;;;;;;;;7.1;XRF;;;1017;XRF;;;20.9;XRF;;;49;XRF;;;4.3;XRF;;;;;;;;;;;;256;XRF;;;8.38;MS_ID;;;20.5;MS_ID;;;;;;;11;XRF;14.33;MS_ID;3.593;MS_ID;;;1.166;MS_ID;;;3.66;;;;;3.41;;1.958;;1.769;MS_ID;;;;;;;;;;;;;;;;;;;;;;;;;0.7;XRF;0.715;NOT;;0;XRF;;;;0.682;NOT;;;;;;0.512998;0.241593;;;;18.58;TIMS;;;;;15.623;TIMS;;;;38.33;TIMS;;;;;;;;;;;;;;;;;;;;;;;;;;;;;;;;;;;;;;;;;;;;;;;;;;;;;;;;;;;;;;;;;;;;;;;;;;;
1984;[3286] THIRLWALL M. F. (1984);samp. 450;38237;LESSER ANTILLES / LESSER ANTILLES / GRENADA / MOUNT MORITZ;MT. MAITLAND;12;-61.5;12.25;-61.75;;;OUTCROP;;;SUBAERIAL;VOLCANIC ROCK;ANKARAMITE;;;;;;;;;;WHOLE ROCK;;;;;;;;;;;;;;47.17;0.963;15.58;;;;;11.3;;;14.43;7.06;0.183;;;;;;0.515;XRF;;;2.12;XRF;;;0.124;;;;;;;;;;0.43;;;;;;;;;;;;;;;;;;;;;;;;;;;;;;;;;;;;;;;44;XRF;;;;;;334;XRF;;;75;XRF;;;;;;;;;;;45;XRF;;;;;145;XRF;;;74;XRF;;;;;;;;;;5.6;XRF;;;1022;XRF;;;20.8;XRF;;;46;XRF;;;3.8;XRF;;;;;;;;;;;;253;XRF;;;8.85;MS_ID;;;20.4;MS_ID;;;;;;;12;XRF;14.64;MS_ID;3.633;MS_ID;;;1.189;MS_ID;;;3.81;;;;;3.45;;1.994;;1.784;MS_ID;;;0.26;;;;;;;;;;;;;;;;;;;;;;1.4;XRF;1.36;NOT;;2;XRF;;;;0.693;NOT;;;;;;0.512992;0.241602;;;;18.666;TIMS;;;;;15.623;TIMS;;;;38.35;TIMS;;;;;;;;;;;;;;;;;;;;;;;;;;;;;;;;;;;;;;;;;;;;;;;;;;;;;;;;;;;;;;;;;;;;;;;;;;;
1984;[3286] THIRLWALL M. F. (1984);samp. 239;38227;LESSER ANTILLES / LESSER ANTILLES / GRENADA / MOUNT GRANBY;FEDON^S CAMP;12;-61.5;12.25;-61.75;;;OUTCROP;;;SUBAERIAL;VOLCANIC ROCK;ANKARAMITE;;;;;;;;;;WHOLE ROCK;;;;;;;;;;;;;;47.38;0.996;16.68;;;;;10.51;;;13.49;6.45;0.175;;;;;;1.033;XRF;;;2.39;XRF;;;0.172;;;;;;;;;;0.05;;;;;;;;;;;;;;;;;;;;;;;;;;;;;;;;;;;;;;;35;XRF;;;;;;316;XRF;;;70;XRF;;;;;;;;;;;43;XRF;;;;;134;XRF;;;63;XRF;;;;;;;;;;15.3;XRF;;;1133;XRF;;;20.1;XRF;;;68;XRF;;;3.8;XRF;;;;;;;;;;;;366;XRF;;;15.7;MS_ID;;;35.2;MS_ID;;;;;;;22;XRF;22.39;MS_ID;5.091;MS_ID;;;1.541;MS_ID;;;4.58;;;;;3.67;;1.975;;1.72;MS_ID;;;;;;;;;;;;;;;;;;;;;;;;;2.5;XRF;;;;5;XRF;;;;2.48;NOT;;;;;;0.512956;0.241583;;;;18.863;TIMS;;;;;15.652;TIMS;;;;38.46;TIMS;;;;;;;;;;;;;;;;;;;;;;;;;;;;;;;;;;;;;;;;;;;;;;;;;;;;;;;;;;;;;;;;;;;;;;;;;;;
1984;[3286] THIRLWALL M. F. (1984);samp. 225B;38206;LESSER ANTILLES / LESSER ANTILLES / GRENADA / MOUNT ST. CATHERINE;;12.2;-61.7;12.2;-61.7;;;OUTCROP;;;SUBAERIAL;VOLCANIC ROCK;ANKARAMITE;;;;;;;;;;WHOLE ROCK;;;;;;;;;;;;;;49.16;0.992;17.15;;;;;9.83;;;12.73;5.76;0.143;;;;;;1.037;XRF;;;2.84;XRF;;;0.19;;;;;;;;;;0.35;;;;;;;;;;;;;;;;;;;;;;;;;;;;;;;;;;;;;;;33;XRF;;;;;;318;XRF;;;65;XRF;;;;;;;;;;;47;XRF;;;;;340;XRF;;;117;XRF;;;;;;;;;;10.8;XRF;;;1180;XRF;;;18.9;XRF;;;80;XRF;;;5.7;XRF;;;;;;;;;;;;367;XRF;;;18.7;MS_ID;;;39;MS_ID;;;;;;;22;XRF;22.74;MS_ID;4.844;MS_ID;;;1.462;MS_ID;;;4.31;;;;;3.45;;1.87;;1.658;MS_ID;;;;;;;;;;;;;;;;;;;;;;;;;11.9;XRF;;;;7;XRF;;;;2.53;NOT;;;;;;0.512995;0.241594;;;;18.937;TIMS;;;;;15.673;TIMS;;;;38.62;TIMS;;;;;;;;;;;;;;;;;;;;;;;;;;;;;;;;;;;;;;;;;;;;;;;;;;;;;;;;;;;;;;;;;;;;;;;;;;;
1984;[3286] THIRLWALL M. F. (1984);samp. 487A;38226;LESSER ANTILLES / LESSER ANTILLES / GRENADA / MOUNT GRANBY;FEDON^S CAMP;12;-61.5;12.25;-61.75;;;OUTCROP;;;SUBAERIAL;VOLCANIC ROCK;ANKARAMITE;;;;;;;;;;WHOLE ROCK;;;;;;;;;;;;;;48.92;1.061;17.6;;;;;9.79;;;11.98;5.61;0.175;;;;;;1.173;XRF;;;2.84;XRF;;;0.187;;;;;;;;;;-0.14;;;;;;;;;;;;;;;;;;;;;;;;;;;;;;;;;;;;;;;28.8;XRF;;;;;;288;XRF;;;43;XRF;;;;;;;;;;;36;XRF;;;;;137;XRF;;;57;XRF;;;;;;;;;;18.3;XRF;;;891;XRF;;;29;XRF;;;82;XRF;;;7.2;XRF;;;;;;;;;;;;351;XRF;;;;;;;;;;;;;;;21;XRF;;;;;;;;;;;;;;;;;;;;;;;;;;;;;;;;;;;;;;;;;;;;;;1.9;XRF;;;;3;XRF;;;;;;;;;;;;;;;;;;;;;;;;;;;;;;;;;;;;;;;;;;;;;;;;;;;;;;;;;;;;;;;;;;;;;;;;;;;;;;;;;;;;;;;;;;;;;;;;;;;;;;;