Year;CITATION;SAMPLE NAME;UNIQUE_ID;LOCATION;LOCATION COMMENT;LATITUDE (MIN.);LONGITUDE (MIN.);LATITUDE (MAX.);LONGITUDE (MAX.);ELEVATION (MIN.);ELEVATION (MAX.);SAMPLING TECHNIQUE;DRILLING DEPTH (MIN.);DRILLING DEPTH (MAX.);LAND/SEA (SAMPLING);ROCK TYPE;ROCK NAME;ROCK TEXTURE;SAMPLE COMMENT;AGE (MIN.);AGE (MAX.);GEOLOGICAL AGE;GEOLOGICAL AGE PREFIX;ERUPTION YEAR;ALTERATION;ALTERATION TYPE;TYPE OF MATERIAL;MINERAL / COMPONENT;SPOT (MINERAL);CRYSTAL;RIM / CORE (MINERAL GRAINS);GRAIN SIZE;PRIMARY/SECONDARY;INCLUSION TYPE;SPOT (INCLUSION);MINERAL (INCLUSION);RIM / CORE (INCLUSION);HOSTMINERAL (INCLUSION);HEATING;HEATING TEMPERATURE (?C);SIO2(WT%);TIO2(WT%);AL2O3(WT%);CR2O3(WT%);V2O3(WT%);V2O5(WT%);FE2O3T(WT%);FE2O3(WT%);FEOT(WT%);FEO(WT%);CAO(WT%);MGO(WT%);MNO(WT%);BAO(WT%);SRO(WT%);NIO(WT%);ZNO(WT%);COO(WT%);K2O(WT%);;;;NA2O(WT%);;;;P2O5(WT%);H2O(WT%);H2OP(WT%);H2OM(WT%);CO2(WT%);F(WT%);CL(WT%);CL2(WT%);SO3(WT%);S(WT%);LOI(WT%);O(WT%);SI(WT%);AL(WT%);TI(WT%);FE(WT%);MG(WT%);MN(WT%);CA(WT%);K(WT%): altern. values or methods;;;;NA(WT%);CR(WT%);NI(WT%);HE(CCMSTP/G);HE3(CCMSTP/G);HE4(CCMSTP/G): altern. values or methods;;;;LI(PPM);BE(PPM);B(PPM);F(PPM);NE20(CCMSTP/G);NE22(CCMSTP/G);P(PPM);S(PPM);CL(PPM);AR36(CCMSTP/G);AR40(CCMSTP/G);AR40(MOL/G): altern. values or methods;;;;AR40(PPB);K(PPM);SC(PPM): altern. values or methods;;;;;;TI(PPM);V(PPM): altern. values or methods;;;;CR(PPM): altern. values or methods;;;;MN(PPM);FE(PPM);CO(PPM): altern. values or methods;;;;;;NI(PPM): altern. values or methods;;;;;;CU(PPM): altern. values or methods;;;;ZN(PPM): altern. values or methods;;;;GA(PPM): altern. values or methods;;;;GE(PPM);AS(PPM);KR84(CCMSTP/G);RB(PPM): altern. values or methods;;;;SR(PPM): altern. values or methods;;;;Y(PPM): altern. values or methods;;;;ZR(PPM): altern. values or methods;;;;NB(PPM): altern. values or methods;;;;MO(PPM);RU(PPB);RH(PPB);PD(PPB);IN(PPM);SN(PPM);SB(PPM);XE132(CCMSTP/G);CS(PPM);BA(PPM): altern. values or methods;;;;LA(PPM): altern. values or methods;;;;CE(PPM): altern. values or methods;;;;PR(PPM): altern. values or methods;;;;ND(PPM): altern. values or methods;;;;SM(PPM): altern. values or methods;;;;EU(PPM): altern. values or methods;;;;GD(PPM);TB(PPM): altern. values or methods;;;;DY(PPM);HO(PPM);ER(PPM);TM(PPM);YB(PPM): altern. values or methods;;;;LU(PPM);HF(PPM): altern. values or methods;;;;TA(PPM);W(PPM);RE(PPB): altern. values or methods;;;;RE(PPT);OS(PPB): altern. values or methods;;;;OS(PPT);IR(PPB);PT(PPB);AU(PPB);HG(PPB);TL(PPM);PB(PPM): altern. values or methods;;;;PB210_ACT(DPM/G);TH(PPM): altern. values or methods;;;;TH(PPB);U(PPM): altern. values or methods;;;;U(PPB);CO2(PPM);H2O(PPM);ND143_ND144;ND148_ND144;SM147_ND144;SR87_SR86;RB87_SR86;PB206_PB204: altern. values or methods;;;;PB206_PB207;PB206_PB208;PB207_PB204: altern. values or methods;;;;PB207_PB206;PB208_PB204: altern. values or methods;;;;PB208_PB206;OS187_OS186;OS187_OS188: altern. values or methods;;;;RE187_OS188: altern. values or methods;;;;HF176_HF177;HE3_HE4;HE3_HE4(R/R(A)): altern. values or methods;;;;HE4_HE3: altern. values or methods;;;;;;HE4_HE3(R/R(A)): altern. values or methods;;;;AR38_AR36;AR40_AR36;NE20_NE22;NE21_NE22;XE129_XE132;PB206_U238;PB207_U235;PB210_U238;TH232_U238;U238_PB204;D13C(VS SMOW);D17O(VS VSMOW);D18O(PER MIL);D18O(VS PDB);D18O(VS SMOW);D18O(VS VSMOW);D34S(VS CDT);D44_40CA(VS SRM915A);D56FE(VS IRMM-014);DD(VS SMOW);ALBITE(MOL%);ACMITE(MOL%);ANORTHITE(MOL%);ENSTATITE(MOL%);FAYALITE(MOL%);FORSTERITE(MOL%);FERROSILITE(MOL%);HEMATITE(MOL%);LARNITE(MOL%);ORTHOCLASE(MOL%);PSEUDOBROOKITE(MOL%);TEPHROITE(MOL%);ULVOSPINEL(MOL%);WOLLASTONITE(MOL%);AGE(KA);AGE(MA): altern. values or methods;;;;;;;;AGE_PB207_PB206(MA);AGE_PB207_U235(MA);AGE_PB206_U238(MA);
1984;[3286] THIRLWALL M. F. (1984);samp. 380;38204;LESSER ANTILLES / LESSER ANTILLES / GRENADA / MOUNT ST. CATHERINE;;12.2;-61.7;12.2;-61.7;;;OUTCROP;;;SUBAERIAL;VOLCANIC ROCK;ANKARAMITE;;;500000;2000000;PLEISTOCENE;;;;;WHOLE ROCK;;;;;;;;;;;;;;48.32;0.973;18.4;;;;;10.91;;;12.21;4.99;0.17;;;;;;1.158;XRF;;;2.39;XRF;;;0.219;;;;;;;;;;0.76;;;;;;;;;;;;;;;;;;;;;;;;;;;;;;;;;;;;;;;24.3;XRF;;;;;;342;XRF;;;11;XRF;;;;;;;;;;;33;XRF;;;;;148;XRF;;;70;XRF;;;;;;;;;;16.5;XRF;;;1237;XRF;;;25;XRF;;;81;XRF;;;6.8;XRF;;;;;;;;;;;;411;XRF;;;18.1;MS_ID;;;38.1;MS_ID;;;;;;;21;XRF;22.59;MS_ID;4.957;MS_ID;;;1.546;MS_ID;;;4.67;;;;;4.06;;2.301;;2.074;MS_ID;;;;;;;;;;;;;;;;;;;;;;;;;1.8;XRF;;;;6;XRF;;;;1.69;NOT;;;;;;0.512992;0.241587;;0.70469;;19.043;TIMS;;;;;15.697;TIMS;;;;38.79;TIMS;;;;;;;;;;;;;;;;;;;;;;;;;;;;;;;;;;;;;;;;;;;;;;;;;;;;;;;;;;;;;;;;;;;;;;;;;;;
1984;[3286] THIRLWALL M. F. (1984);samp. 230;38207;LESSER ANTILLES / LESSER ANTILLES / GRENADA / MOUNT ST. CATHERINE;;12.2;-61.7;12.2;-61.7;;;OUTCROP;;;SUBAERIAL;VOLCANIC ROCK;ANKARAMITE;;;;;;;;;;WHOLE ROCK;;;;;;;;;;;;;;52.03;0.822;17.64;;;;;8.39;;;10.5;4.68;0.139;;;;;;1.456;XRF;;;3.48;XRF;;;0.232;;;;;;;;;;0.34;;;;;;;;;;;;;;;;;;;;;;;;;;;;;;;;;;;;;;;20.5;XRF;;;;;;243;XRF;;;40;XRF;;;;;;;;;;;34;XRF;;;;;81;XRF;;;57;XRF;;;;;;;;;;27.8;XRF;;;1035;XRF;;;18.9;XRF;;;111;XRF;;;8.1;XRF;;;;;;;;;;;;452;XRF;;;;;;;;;;;;;;;23;XRF;;;;;;;;;;;;;;;;;;;;;;;;;;;;;;;;;;;;;;;;;;;;;;1.6;XRF;;;;13;XRF;;;;;;;;;;;;;;;;;;;;;;;;;;;;;;;;;;;;;;;;;;;;;;;;;;;;;;;;;;;;;;;;;;;;;;;;;;;;;;;;;;;;;;;;;;;;;;;;;;;;;;;
1984;[3286] THIRLWALL M. F. (1984);samp. 169;38242;LESSER ANTILLES / LESSER ANTILLES / GRENADA / C-SERIES;;12;-61.5;12.25;-61.75;;;OUTCROP;;;SUBAERIAL;VOLCANIC ROCK;ANKARAMITE;;;;;;;;;;WHOLE ROCK;;;;;;;;;;;;;;;;;;;;;;;;;;;;;;;;;;;;;;;;;;;;;;;;;;;;;;;;;;;;;;;;;;;;;;;;;;;;;;;;;;;;;;;;;;;;;;;;;;;;;;;;;;;;;;;;;;;;;;;;;;;;;;;;;;;;;;;;;;;;;;;;;;;;;;;;;;;;;;;;;;;;;;28.9;MS_ID;;;63.2;MS_ID;;;;;;;34.34;MS_ID;;;6.788;MS_ID;;;1.865;MS_ID;;;5.71;;;;;4.08;;2.026;;1.728;MS_ID;;;0.248;;;;;;;;;;;;;;;;;;;;;;1.67;NOT;;;;;;;;;2.56;NOT;;;;;;0.512987;0.241601;;;;18.52;TIMS;;;;;15.6;TIMS;;;;38.6;TIMS;;;;;;;;;;;;;;;;;;;;;;;;;;;;;;;;;;;;;;;;;;;;;;;;;;;;;;;;;;;;;;;;;;;;;;;;;;;
1984;[3286] THIRLWALL M. F. (1984);samp. 358;38239;LESSER ANTILLES / LESSER ANTILLES / GRENADA / C-SERIES;;12;-61.5;12.25;-61.75;;;OUTCROP;;;SUBAERIAL;VOLCANIC ROCK;ANKARAMITE;;;;;;;;;;WHOLE ROCK;;;;;;;;;;;;;;;;;;;;;;;;;;;;;;;;;;;;;;;;;;;;;;;;;;;;;;;;;;;;;;;;;;;;;;;;;;;;;;;;;;;;;;;;;;;;;;;;;;;;;;;;;;;;;;;;;;;;;;;;;;;;;;;;;;;;;;;;;;;;;;;;;;;;;;;;;;;;;;;;;;;;;;34.2;MS_ID;;;71.9;MS_ID;;;;;;;36.29;MS_ID;;;6.915;MS_ID;;;1.976;MS_ID;;;5.81;;;;;4.43;;2.28;;2.056;MS_ID;;;0.301;;;;;;;;;;;;;;;;;;;;;;1.6;NOT;;;;;;;;;3.88;NOT;;;;;;0.5112997;0.241604;;;;18.37;TIMS;;;;;15.6;TIMS;;;;37.86;TIMS;;;;;;;;;;;;;;;;;;;;;;;;;;;;;;;;;;;;;;;;;;;;;;;;;;;;;;;;;;;;;;;;;;;;;;;;;;;
1984;[3286] THIRLWALL M. F. (1984);samp. 454;38236;LESSER ANTILLES / LESSER ANTILLES / GRENADA / MOUNT MORITZ;MT. MAITLAND;12;-61.5;12.25;-61.75;;;OUTCROP;;;SUBAERIAL;VOLCANIC ROCK;ANKARAMITE;;;;;;;;;;WHOLE ROCK;;;;;;;;;;;;;;;;;;;;;;;;;;;;;;;;;;;;;;;;;;;;;;;;;;;;;;;;;;;;;;;;;;;;;;;;;;;;;;;;;;;;;;;;;;;;;;;;;;;;;;;;;;;;;;;;;;;;;;;;;;;;;;;;;;;;;;;;;;;;;;;;;;;;;;;;;;;;;;;;;;;;;;8.44;MS_ID;;;20.6;MS_ID;;;;;;;14.37;MS_ID;;;3.596;MS_ID;;;1.173;MS_ID;;;3.74;;;;;3.43;;1.954;;1.771;MS_ID;;;0.257;;;;;;;;;;;;;;;;;;;;;;;;;;;;;;;;0.671;NOT;;;;;;0.512992;0.241597;;;;;;;;;;;;;;;;;;;;;;;;;;;;;;;;;;;;;;;;;;;;;;;;;;;;;;;;;;;;;;;;;;;;;;;;;;;;;;;;;;;;;;;;;;;
1984;[3286] THIRLWALL M. F. (1984);samp. 450;38237;LESSER ANTILLES / LESSER ANTILLES / GRENADA / MOUNT MORITZ;MT. MAITLAND;12;-61.5;12.25;-61.75;;;OUTCROP;;;SUBAERIAL;VOLCANIC ROCK;ANKARAMITE;;;;;;;;;;WHOLE ROCK;;;;;;;;;;;;;;;;;;;;;;;;;;;;;;;;;;;;;;;;;;;;;;;;;;;;;;;;;;;;;;;;;;;;;;;;;;;;;;;;;;;;;;;;;;;;;;;;;;;;;;;;;;;;;;;;;;;;;;;;;;;;;;;;;;;;;;;;;;;;;;;;;;;;;;;;;;;;;;;;;;;;;;8.9;MS_ID;;;20.4;MS_ID;;;;;;;14.7;MS_ID;;;3.643;MS_ID;;;1.19;MS_ID;;;3.82;;;;;3.46;;1.984;;1.777;MS_ID;;;0.259;;;;;;;;;;;;;;;;;;;;;;;;;;;;;;;;0.701;NOT;;;;;;0.513003;0.24158;;;;;;;;;;;;;;;;;;;;;;;;;;;;;;;;;;;;;;;;;;;;;;;;;;;;;;;;;;;;;;;;;;;;;;;;;;;;;;;;;;;;;;;;;;;
1984;[3286] THIRLWALL M. F. (1984);samp. 380;38204;LESSER ANTILLES / LESSER ANTILLES / GRENADA / MOUNT ST. CATHERINE;;12.2;-61.7;12.2;-61.7;;;OUTCROP;;;SUBAERIAL;VOLCANIC ROCK;ANKARAMITE;;;500000;2000000;PLEISTOCENE;;;;;WHOLE ROCK;;;;;;;;;;;;;;;;;;;;;;;;;;;;;;;;;;;;;;;;;;;;;;;;;;;;;;;;;;;;;;;;;;;;;;;;;;;;;;;;;;;;;;;;;;;;;;;;;;;;;;;;;;;;;;;;;;;;;;;;;;;;;;;;;;;;;;;;;;;;;;;;;;;;;;;;;;;;;;;;;;;;;;18.9;MS_ID;;;39.7;MS_ID;;;;;;;23.5;MS_ID;;;5.156;MS_ID;;;1.612;MS_ID;;;4.92;;;;;4.09;;2.279;;2.071;MS_ID;;;0.303;;;;;;;;;;;;;;;;;;;;;;;;;;;;;;;;1.72;NOT;;;;;;;;;0.70467;;;;;;;;;;;;;;;;;;;;;;;;;;;;;;;;;;;;;;;;;;;;;;;;;;;;;;;;;;;;;;;;;;;;;;;;;;;;;;;;;;;;;;;;;
1932;[3293] BACKLUND H. G. (1932);samp. 2;;NORTH ATLANTIC IGNEOUS PROVINCE (NAIP) / EAST GREENLAND;LADDER MOUNTAIN, MOSCHUSOCHS FJORD;74;-21;74;-21;;;OUTCROP;;;SUBAERIAL;VOLCANIC ROCK;ANKARAMITE;;;;;;;;;;WHOLE ROCK;;;;;;;;;;;;;;43.2;3.6;8.57;;;;;5;;6.24;15.65;12;0.14;;;;;;0.78;NOT;;;1.3;NOT;;;0.36;;2.4;0.8;;;;;;;;;;;;;;;;;;;;;;;;;;;;;;;;;;;;;;;;;;;;;;;;;;;;;;;;;;;;;;;;;;;;;;;;;;;;;;;;;;;;;;;;;;;;;;;;;;;;;;;;;;;;;;;;;;;;;;;;;;;;;;;;;;;;;;;;;;;;;;;;;;;;;;;;;;;;;;;;;;;;;;;;;;;;;;;;;;;;;;;;;;;;;;;;;;;;;;;;;;;;;;;;;;;;;;;;;;;;;;;;;;;;;;;;;;;;;;;;;;;;;;;;;;;;;;;;;;;;;;;;;;;;;;;;;;;;;;;;;;;;;;;;;;;
1952;[3294] KATZ H. R. (1952);samp. 24;;NORTH ATLANTIC IGNEOUS PROVINCE (NAIP) / EAST GREENLAND;ARNOLD ESCHERS LAND;72.5;-24;74.17;-35;2010;2010;OUTCROP;;;SUBAERIAL;VOLCANIC ROCK;ANKARAMITE;MEDIUM- TO COARSE-GRAINED, HOLOCRYSTALLINE PORPHYRITIC;;;;CENOZOIC;;;;;WHOLE ROCK;;;;;;;;;;;;;;40.4;5.53;6.09;;;;;7.9;;10.35;13.63;9.93;0.27;;;;;;0.82;NOT;;;2.55;NOT;;;0.53;;1.6;0.42;0;;;;;;;;;;;;;;;;;;;;;;;;;;;;;;;;;;;;;;;;;;;;;;;;;;;;;;;;;;;;;;;;;;;;;;;;;;;;;;;;;;;;;;;;;;;;;;;;;;;;;;;;;;;;;;;;;;;;;;;;;;;;;;;;;;;;;;;;;;;;;;;;;;;;;;;;;;;;;;;;;;;;;;;;;;;;;;;;;;;;;;;;;;;;;;;;;;;;;;;;;;;;;;;;;;;;;;;;;;;;;;;;;;;;;;;;;;;;;;;;;;;;;;;;;;;;;;;;;;;;;;;;;;;;;;;;;;;;;;;;;;;;;;;;;;
1984;[3452] NARAIN A. (1984);samp. 205/A;;DECCAN / NORTHERN DECCAN;JAMLI, BAKHATGARH REGION, JHABUA DISTRICT, MADHYA PRADESH;21.92;74.08;22.17;74.17;;;OUTCROP;;;SUBAERIAL;VOLCANIC ROCK;ANKARAMITE;;;;;;;;;;WHOLE ROCK;;;;;;;;;;;;;;43.8;1.67;11.4;;;;;2.5;;8.45;14.9;12.3;0.2;;;;;;0.94;NOT;;;1.96;NOT;;;0.56;;1.35;;0.5;;;;;;;;;;;;;;;;;;;;;;;;;;;;;;;;;;;;;;;;;;;;;;;;;;;;;;;;;;;;;;;;;;;;170;NOT;;;;;90;NOT;;;55;NOT;;;;;;;;;;12;NOT;;;870;NOT;;;30;NOT;;;130;NOT;;;70;NOT;;;;;;;;;;;;1650;NOT;;;;;;;;;;;;;;;;;;;;;;;;;;;;;;;;;;;;;;;;;;;;;;;;;;;;;;;;;;;;;;;;;;;;;;;;;;;;;;;;;;;;;;;;;;;;;;;;;;;;;;;;;;;;;;;;;;;;;;;;;;;;;;;;;;;;;;;;;;;;;;;;;;;;;;;;;;;;;;;;;;;;;;;;;;;
1984;[3452] NARAIN A. (1984);samp. 326/A;;DECCAN / NORTHERN DECCAN;DIKE CLUSTER, KANTHARI, BAKHATGARH REGION, JHABUA DISTRICT, MADHYA PRADESH;21.92;74.08;22.17;74.17;;;OUTCROP;;;SUBAERIAL;VOLCANIC ROCK;ANKARAMITE;;;;;;;;;;WHOLE ROCK;;;;;;;;;;;;;;45.8;2.7;10.1;;;;;3.37;;0.03;15.15;9.5;0.19;;;;;;0.77;NOT;;;1.69;NOT;;;0.64;;3.91;;0.58;;;;;;;;;;;;;;;;;;;;;;;;;;;;;;;;;;;;;;;;;;;;;;;;;;;;;;;;;;;;;;;;;;;;120;NOT;;;;;90;NOT;;;70;NOT;;;;;;;;;;25;NOT;;;710;NOT;;;27;NOT;;;265;NOT;;;100;NOT;;;;;;;;;;;;1520;NOT;;;;;;;;;;;;;;;;;;;;;;;;;;;;;;;;;;;;;;;;;;;;;;;;;;;;;;;;;;;;;;;;;;;;;;;;;;;;;;;;;;;;;;;;;;;;;;;;;;;;;;;;;;;;;;;;;;;;;;;;;;;;;;;;;;;;;;;;;;;;;;;;;;;;;;;;;;;;;;;;;;;;;;;;;;;
1984;[3452] NARAIN A. (1984);samp. 331/A;;DECCAN / NORTHERN DECCAN;DIKE CLUSTER, KANTHARI, BAKHATGARH REGION, JHABUA DISTRICT, MADHYA PRADESH;21.92;74.08;22.17;74.17;;;OUTCROP;;;SUBAERIAL;VOLCANIC ROCK;ANKARAMITE;;;;;;;;;;WHOLE ROCK;;;;;;;;;;;;;;47.1;0.8;11.3;;;;;1.56;;9;10.75;15.4;0.2;;;;;;0.82;NOT;;;1.56;NOT;;;0.17;;1.48;;0.03;;;;;;;;;;;;;;;;;;;;;;;;;;;;;;;;;;;;;;;;;;;;;;;;;;;;;;;;;;;;;;;;;;;;500;NOT;;;;;110;NOT;;;60;NOT;;;;;;;;;;20;NOT;;;280;NOT;;;25;NOT;;;60;NOT;;;15;NOT;;;;;;;;;;;;390;NOT;;;;;;;;;;;;;;;;;;;;;;;;;;;;;;;;;;;;;;;;;;;;;;;;;;;;;;;;;;;;;;;;;;;;;;;;;;;;;;;;;;;;;;;;;;;;;;;;;;;;;;;;;;;;;;;;;;;;;;;;;;;;;;;;;;;;;;;;;;;;;;;;;;;;;;;;;;;;;;;;;;;;;;;;;;;
1998;[3496] STOREY M. (1998);samp. 264091;54575;NORTH ATLANTIC IGNEOUS PROVINCE (NAIP) / WEST GREENLAND / VAIGAT FORMATION, ORDLINGASSOQ MEMBER;DISKO (QEGERTARSSUAQ);70.07416;-53.5353;70.07416;-53.5353;700;700;OUTCROP;;;SUBAERIAL;VOLCANIC ROCK;ANKARAMITE;;;;;;;;;;VOLCANIC GLASS;;;;;;;;;;;;;;;;;;;;;;;;;;;;;;;;;;;;;;;;;;;;;;;;;;;;;;;;;;;;;;;;;;;;;;;;;;;;;;;;;;;;;;;;;;;;;;;;;;;;;;;;;;;;;;;;;;;;;;;;;;;;;;;;;;;;;;;;;;;;;;;;;;;;;;;;;;;;;;;;;;;;;;;;;;;;;;;;;;;;;;;;;;;;;;;;;;;;;;;;;;;;;;;;;;;;;;;;;;;;;;;;;;;;;;;;;;;;;;;;;;;;;;;;;;;;;;;;;;;;;;;;;;;;;;;;;;;;;;;;;;;;;;;;;;;;;;;;;;;;;;;;;;;;;;;;;;;;;;;;;;;60.7;AR-AR;60.3;AR-AR;;;;;;;;
1998;[3496] STOREY M. (1998);samp. 264091;54575;NORTH ATLANTIC IGNEOUS PROVINCE (NAIP) / WEST GREENLAND / VAIGAT FORMATION, ORDLINGASSOQ MEMBER;DISKO (QEGERTARSSUAQ);70.07416;-53.5353;70.07416;-53.5353;700;700;OUTCROP;;;SUBAERIAL;VOLCANIC ROCK;ANKARAMITE;;;;;;;;;;VOLCANIC GLASS;;;;;;;;;;;;;;44.17;1.75;14.72;;;;;;12.07;;14.59;6.53;;;;;;;1.34;EMP (EPMA);;;2.62;EMP (EPMA);;;1.05;;;;;;;;;;;;;;;;;;;;;;;;;;;;;;;;;;;;;;;;;;;;;;;;;;;;;;;;;;;;;;;;;;;;;;;;;;;;;;;;;;;;;;;;;;;;;;;;;;;;;;;;;;;;;;;;;;;;;;;;;;;;;;;;;;;;;;;;;;;;;;;;;;;;;;;;;;;;;;;;;;;;;;;;;;;;;;;;;;;;;;;;;;;;;;;;;;;;;;;;;;;;;;;;;;;;;;;;;;;;;;;;;;;;;;;;;;;;;;;;;;;;;;;;;;;;;;;;;;;;;;;;;;;;;;;;;;;;;;;;;;;;;;;;;;;;;;
1986;[3500] VARNE R. (1986);samp. T48001;;SUNDA ARC / SUNDA ARC / LOMBOK / RINDJANI/RINJANI;;-8.42;116.47;-8.42;116.47;;3726;OUTCROP;;;SUBAERIAL;VOLCANIC ROCK;ANKARAMITE;;;;;QUATERNARY;;;;;WHOLE ROCK;;;;;;;;;;;;;;48.32;0.69;10.53;;;;;;9.19;;14.38;14.02;0.17;;;;;;0.9;XRF;;;1.5;XRF;;;0.15;;;;;;;;;;2.33;;;;;;;;;;;;;;;;;;;;;;;;;;;;;;;;;;;;;;;50;XRF;;;;;;;;;;510;XRF;;;;;;;;;;;151;XRF;;;;;;;;;;;;;;;;;;;;21;XRF;;;452;XRF;;;13;XRF;;;53;XRF;;;2;XRF;;;;;;;;;;;;;;;;11;MS_ID;;;;;;;;;;;;;;;;;;;;;;;;;;;;;;;;;;;;;;;;;;;;;;;;;;;;;;;;;;;;;;;;;;;;;;;;;;;0.512776;;;0.70389;;;;;;;;;;;;;;;;;;;;;;;;;;;;;;;;;;;;;;;;;;;;;;;;;;;;;;;;;;;;;;;;;;;;;;;;;;;;;;;;;;;;;;;;;
1963;[3713] ROBERTS B. (1963);samp. NC15;;JAN MAYEN / JAN MAYEN / NORD-JAN / NORDVESTKAPP FORMATION;KRATERLIA CLIFF, SOUTH OF NORDBUKTA;71;-8.5;71;-8.5;;;OUTCROP;;;SUBAERIAL;VOLCANIC ROCK;ANKARAMITE;;;;;;;;;;WHOLE ROCK;;;;;;;;;;;;;;46.81;1.87;8.02;0.25;;;;4.42;;5.51;14.48;15.18;0.17;0.06;;;;;1.21;NOT;;;1.41;NOT;;;0.29;;0.45;0.08;;;;;;;;;;;;;;;;;;;;;;;;;;;;;;;;;;;;;;;;;;;;;;;;;;;;;;;;;;;;;;;;;;;;;;;;;;;;;;;;;;;;;;;;;;;;;;;;;;;;;;;;;;;;;;;;;;;;;;;;;;;;;;;;;;;;;;;;;;;;;;;;;;;;;;;;;;;;;;;;;;;;;;;;;;;;;;;;;;;;;;;;;;;;;;;;;;;;;;;;;;;;;;;;;;;;;;;;;;;;;;;;;;;;;;;;;;;;;;;;;;;;;;;;;;;;;;;;;;;;;;;;;;;;;;;;;;;;;;;;;;;;;;;;;;;
1963;[3713] ROBERTS B. (1963);samp. NC19;;JAN MAYEN / JAN MAYEN / NORD-JAN / STORFJELLET FORMATION;NORD-JAN,;71;-8.5;71;-8.5;;;OUTCROP;;;SUBAERIAL;VOLCANIC ROCK;ANKARAMITE;;;;;;;;;;WHOLE ROCK;;;;;;;;;;;;;;46.84;2.21;6.54;0.19;;;;4.76;;7.37;14.59;14.09;0.18;0.1;;;;;1.21;NOT;;;1.48;NOT;;;0.29;;0.38;0.03;;;;;;;;;;;;;;;;;;;;;;;;;;;;;;;;;;;;;;;;;;;;;;;;;;;;;;;;;;;;;;;;;;;;;;;;;;;;;;;;;;;;;;;;;;;;;;;;;;;;;;;;;;;;;;;;;;;;;;;;;;;;;;;;;;;;;;;;;;;;;;;;;;;;;;;;;;;;;;;;;;;;;;;;;;;;;;;;;;;;;;;;;;;;;;;;;;;;;;;;;;;;;;;;;;;;;;;;;;;;;;;;;;;;;;;;;;;;;;;;;;;;;;;;;;;;;;;;;;;;;;;;;;;;;;;;;;;;;;;;;;;;;;;;;;;
1961;[3714] CARSTENS H. (1961);samp. 1;;JAN MAYEN / JAN MAYEN;BATVIKA;71;-8.5;71;-8.5;;;OUTCROP;;;SUBAERIAL;VOLCANIC ROCK;ANKARAMITE;;;;;;;;;;MINERAL / COMPONENT (INCL. GROUNDMASS);CLINOPYROXENE;;PHENOCRYST;;;PRIMARY;;;;;;;;52.17;0.64;3.35;0.7;;;;0.7;;3.21;22.12;17.12;;;;;;;0.11;NOT;;;0.27;NOT;;;;0.1;;;;;;;;;;;;;;;;;;;;;;;;;;;;;;;;;;;;;;;;;;;;;;;;;;;;;;;;;;;;;;;;;;;;;;;;;;;;;;;;;;;;;;;;;;;;;;;;;;;;;;;;;;;;;;;;;;;;;;;;;;;;;;;;;;;;;;;;;;;;;;;;;;;;;;;;;;;;;;;;;;;;;;;;;;;;;;;;;;;;;;;;;;;;;;;;;;;;;;;;;;;;;;;;;;;;;;;;;;;;;;;;;;;;;;;;;;;;;;;;;;;;;;;;;;;;;;;;;;;;;;;;;;;;;;;;;;;;;;;;;;;;;;;;;;;;;
1961;[3714] CARSTENS H. (1961);samp. 3;;JAN MAYEN / JAN MAYEN;CAPE TRAILL;71;-8.5;71;-8.5;;;OUTCROP;;;SUBAERIAL;VOLCANIC ROCK;ANKARAMITE;;;;;;;;;;MINERAL / COMPONENT (INCL. GROUNDMASS);CLINOPYROXENE;;;;;PRIMARY;;;;;;;;51.85;;1.56;0.73;;;;2.44;;3.46;22.15;17.4;0;;;;;;;;;;;;;;;;;;;;;;;;;;;;;;;;;;;;;;;;;;;;;;;;;;;;;;;;;;;;;;;;;;;;;;;;;;;;;;;;;;;;;;;;;;;;;;;;;;;;;;;;;;;;;;;;;;;;;;;;;;;;;;;;;;;;;;;;;;;;;;;;;;;;;;;;;;;;;;;;;;;;;;;;;;;;;;;;;;;;;;;;;;;;;;;;;;;;;;;;;;;;;;;;;;;;;;;;;;;;;;;;;;;;;;;;;;;;;;;;;;;;;;;;;;;;;;;;;;;;;;;;;;;;;;;;;;;;;;;;;;;;;;;;;;;;;;;;;;;;;;;;;;;;
1997;[3729] PASQUA F. N. (1997);samp. 48001;55262;SUNDA ARC / SUNDA ARC / LOMBOK / RINDJANI/RINJANI;;-8.42;116.47;-8.42;116.47;;3726;OUTCROP;;;SUBAERIAL;VOLCANIC ROCK;ANKARAMITE;;;;;;;;;;INCLUSION;;;;;;;MINERAL INCLUSION;;OLIVINE;;;FALSE;;46.21;1.43;19.43;;;;;;;2.66;21.18;1.57;0;;;;;;1.35;EMP (EPMA);;;3.14;EMP (EPMA);;;1.18;;;;;;;;;;;;;;;;;;;;;;;;;;;;;;;;;;;;;;;;;;;;;;;;;;;;;;;;;;;;;;;;;;;;;;;;;;;;;;;;;;;;;;;;;;;;;;;;;;;;;;;;;;;;;;;;;;;;;;;;;;;;;;;;;;;;;;;;;;;;;;;;;;;;;;;;;;;;;;;;;;;;;;;;;;;;;;;;;;;;;;;;;;;;;;;;;;;;;;;;;;;;;;;;;;;;;;;;;;;;;;;;;;;;;;;;;;;;;;;;;;;;;;;;;;;;;;;;;;;;;;;;;;;;;;;;;;;;;;;;;;;;;;;;;;;;;;
1997;[3729] PASQUA F. N. (1997);samp. 48001;55262;SUNDA ARC / SUNDA ARC / LOMBOK / RINDJANI/RINJANI;;-8.42;116.47;-8.42;116.47;;3726;OUTCROP;;;SUBAERIAL;VOLCANIC ROCK;ANKARAMITE;;;;;;;;;;INCLUSION;;;;;;;MINERAL INCLUSION;;OLIVINE;;;FALSE;;46.27;1.26;19.49;;;;;;;2.79;20.11;1.19;0.07;;;;;;1.82;EMP (EPMA);;;3.3;EMP (EPMA);;;0.92;;;;;;;;;;;;;;;;;;;;;;;;;;;;;;;;;;;;;;;;;;;;;;;;;;;;;;;;;;;;;;;;;;;;;;;;;;;;;;;;;;;;;;;;;;;;;;;;;;;;;;;;;;;;;;;;;;;;;;;;;;;;;;;;;;;;;;;;;;;;;;;;;;;;;;;;;;;;;;;;;;;;;;;;;;;;;;;;;;;;;;;;;;;;;;;;;;;;;;;;;;;;;;;;;;;;;;;;;;;;;;;;;;;;;;;;;;;;;;;;;;;;;;;;;;;;;;;;;;;;;;;;;;;;;;;;;;;;;;;;;;;;;;;;;;;;;;
1997;[3729] PASQUA F. N. (1997);samp. 48001;55262;SUNDA ARC / SUNDA ARC / LOMBOK / RINDJANI/RINJANI;;-8.42;116.47;-8.42;116.47;;3726;OUTCROP;;;SUBAERIAL;VOLCANIC ROCK;ANKARAMITE;;;;;;;;;;INCLUSION;;;;;;;MINERAL INCLUSION;;OLIVINE;;;FALSE;;49.17;1.13;20.17;;;;;;;2.42;18.27;1.21;0.11;;;;;;1.01;EMP (EPMA);;;3.53;EMP (EPMA);;;0.45;;;;;;;;;;;;;;;;;;;;;;;;;;;;;;;;;;;;;;;;;;;;;;;;;;;;;;;;;;;;;;;;;;;;;;;;;;;;;;;;;;;;;;;;;;;;;;;;;;;;;;;;;;;;;;;;;;;;;;;;;;;;;;;;;;;;;;;;;;;;;;;;;;;;;;;;;;;;;;;;;;;;;;;;;;;;;;;;;;;;;;;;;;;;;;;;;;;;;;;;;;;;;;;;;;;;;;;;;;;;;;;;;;;;;;;;;;;;;;;;;;;;;;;;;;;;;;;;;;;;;;;;;;;;;;;;;;;;;;;;;;;;;;;;;;;;;;
1997;[3729] PASQUA F. N. (1997);samp. 48001;55262;SUNDA ARC / SUNDA ARC / LOMBOK / RINDJANI/RINJANI;;-8.42;116.47;-8.42;116.47;;3726;OUTCROP;;;SUBAERIAL;VOLCANIC ROCK;ANKARAMITE;;;;;;;;;;INCLUSION;;;;;;;MINERAL INCLUSION;;OLIVINE;;;TRUE;1250;45.49;0.93;14.23;;;;;;;8.7;17.76;9.54;0.14;;;;;;1.33;EMP (EPMA);;;1.85;EMP (EPMA);;;0.16;;;;;;;;;;;;;;;;;;;;;;;;;;;;;;;;;;;;;;;;;;;;;;;;;;;;;;;;;;;;;;;;;;;;;;;;;;;;;;;;;;;;;;;;;;;;;;;;;;;;;;;;;;;;;;;;;;;;;;;;;;;;;;;;;;;;;;;;;;;;;;;;;;;;;;;;;;;;;;;;;;;;;;;;;;;;;;;;;;;;;;;;;;;;;;;;;;;;;;;;;;;;;;;;;;;;;;;;;;;;;;;;;;;;;;;;;;;;;;;;;;;;;;;;;;;;;;;;;;;;;;;;;;;;;;;;;;;;;;;;;;;;;;;;;;;;;;
1997;[3729] PASQUA F. N. (1997);samp. 48001;55262;SUNDA ARC / SUNDA ARC / LOMBOK / RINDJANI/RINJANI;;-8.42;116.47;-8.42;116.47;;3726;OUTCROP;;;SUBAERIAL;VOLCANIC ROCK;ANKARAMITE;;;;;;;;;;INCLUSION;;;;;;;MINERAL INCLUSION;;OLIVINE;;;TRUE;1238;45.79;0.88;16.82;;;;;;;7.26;16.77;8.63;0.1;;;;;;1.16;EMP (EPMA);;;2.35;EMP (EPMA);;;0.09;;;;;;;;;;;;;;;;;;;;;;;;;;;;;;;;;;;;;;;;;;;;;;;;;;;;;;;;;;;;;;;;;;;;;;;;;;;;;;;;;;;;;;;;;;;;;;;;;;;;;;;;;;;;;;;;;;;;;;;;;;;;;;;;;;;;;;;;;;;;;;;;;;;;;;;;;;;;;;;;;;;;;;;;;;;;;;;;;;;;;;;;;;;;;;;;;;;;;;;;;;;;;;;;;;;;;;;;;;;;;;;;;;;;;;;;;;;;;;;;;;;;;;;;;;;;;;;;;;;;;;;;;;;;;;;;;;;;;;;;;;;;;;;;;;;;;;
1997;[3729] PASQUA F. N. (1997);samp. 48001;55262;SUNDA ARC / SUNDA ARC / LOMBOK / RINDJANI/RINJANI;;-8.42;116.47;-8.42;116.47;;3726;OUTCROP;;;SUBAERIAL;VOLCANIC ROCK;ANKARAMITE;;;;;;;;;;INCLUSION;;;;;;;MINERAL INCLUSION;;OLIVINE;;;TRUE;1238;45.25;0.92;16.81;;;;;;;6.56;17.07;7.57;0.18;;;;;;1.31;EMP (EPMA);;;2.66;EMP (EPMA);;;0;;;;;;;;;;;;;;;;;;;;;;;;;;;;;;;;;;;;;;;;;;;;;;;;;;;;;;;;;;;;;;;;;;;;;;;;;;;;;;;;;;;;;;;;;;;;;;;;;;;;;;;;;;;;;;;;;;;;;;;;;;;;;;;;;;;;;;;;;;;;;;;;;;;;;;;;;;;;;;;;;;;;;;;;;;;;;;;;;;;;;;;;;;;;;;;;;;;;;;;;;;;;;;;;;;;;;;;;;;;;;;;;;;;;;;;;;;;;;;;;;;;;;;;;;;;;;;;;;;;;;;;;;;;;;;;;;;;;;;;;;;;;;;;;;;;;;;