Year;CITATION;SAMPLE NAME;UNIQUE_ID;LOCATION;LOCATION COMMENT;LATITUDE (MIN.);LONGITUDE (MIN.);LATITUDE (MAX.);LONGITUDE (MAX.);ELEVATION (MIN.);ELEVATION (MAX.);SAMPLING TECHNIQUE;DRILLING DEPTH (MIN.);DRILLING DEPTH (MAX.);LAND/SEA (SAMPLING);ROCK TYPE;ROCK NAME;ROCK TEXTURE;SAMPLE COMMENT;AGE (MIN.);AGE (MAX.);GEOLOGICAL AGE;GEOLOGICAL AGE PREFIX;ERUPTION YEAR;ALTERATION;ALTERATION TYPE;TYPE OF MATERIAL;MINERAL / COMPONENT;SPOT (MINERAL);CRYSTAL;RIM / CORE (MINERAL GRAINS);GRAIN SIZE;PRIMARY/SECONDARY;INCLUSION TYPE;SPOT (INCLUSION);MINERAL (INCLUSION);RIM / CORE (INCLUSION);HOSTMINERAL (INCLUSION);HEATING;HEATING TEMPERATURE (?C);SIO2(WT%);TIO2(WT%);AL2O3(WT%);CR2O3(WT%);V2O3(WT%);V2O5(WT%);FE2O3T(WT%);FE2O3(WT%);FEOT(WT%);FEO(WT%);CAO(WT%);MGO(WT%);MNO(WT%);BAO(WT%);SRO(WT%);NIO(WT%);ZNO(WT%);COO(WT%);K2O(WT%);;;;NA2O(WT%);;;;P2O5(WT%);H2O(WT%);H2OP(WT%);H2OM(WT%);CO2(WT%);F(WT%);CL(WT%);CL2(WT%);SO3(WT%);S(WT%);LOI(WT%);O(WT%);SI(WT%);AL(WT%);TI(WT%);FE(WT%);MG(WT%);MN(WT%);CA(WT%);K(WT%): altern. values or methods;;;;NA(WT%);CR(WT%);NI(WT%);HE(CCMSTP/G);HE3(CCMSTP/G);HE4(CCMSTP/G): altern. values or methods;;;;LI(PPM);BE(PPM);B(PPM);F(PPM);NE20(CCMSTP/G);NE22(CCMSTP/G);P(PPM);S(PPM);CL(PPM);AR36(CCMSTP/G);AR40(CCMSTP/G);AR40(MOL/G): altern. values or methods;;;;AR40(PPB);K(PPM);SC(PPM): altern. values or methods;;;;;;TI(PPM);V(PPM): altern. values or methods;;;;CR(PPM): altern. values or methods;;;;MN(PPM);FE(PPM);CO(PPM): altern. values or methods;;;;;;NI(PPM): altern. values or methods;;;;;;CU(PPM): altern. values or methods;;;;ZN(PPM): altern. values or methods;;;;GA(PPM): altern. values or methods;;;;GE(PPM);AS(PPM);KR84(CCMSTP/G);RB(PPM): altern. values or methods;;;;SR(PPM): altern. values or methods;;;;Y(PPM): altern. values or methods;;;;ZR(PPM): altern. values or methods;;;;NB(PPM): altern. values or methods;;;;MO(PPM);RU(PPB);RH(PPB);PD(PPB);IN(PPM);SN(PPM);SB(PPM);XE132(CCMSTP/G);CS(PPM);BA(PPM): altern. values or methods;;;;LA(PPM): altern. values or methods;;;;CE(PPM): altern. values or methods;;;;PR(PPM): altern. values or methods;;;;ND(PPM): altern. values or methods;;;;SM(PPM): altern. values or methods;;;;EU(PPM): altern. values or methods;;;;GD(PPM);TB(PPM): altern. values or methods;;;;DY(PPM);HO(PPM);ER(PPM);TM(PPM);YB(PPM): altern. values or methods;;;;LU(PPM);HF(PPM): altern. values or methods;;;;TA(PPM);W(PPM);RE(PPB): altern. values or methods;;;;RE(PPT);OS(PPB): altern. values or methods;;;;OS(PPT);IR(PPB);PT(PPB);AU(PPB);HG(PPB);TL(PPM);PB(PPM): altern. values or methods;;;;PB210_ACT(DPM/G);TH(PPM): altern. values or methods;;;;TH(PPB);U(PPM): altern. values or methods;;;;U(PPB);CO2(PPM);H2O(PPM);ND143_ND144;ND148_ND144;SM147_ND144;SR87_SR86;RB87_SR86;PB206_PB204: altern. values or methods;;;;PB206_PB207;PB206_PB208;PB207_PB204: altern. values or methods;;;;PB207_PB206;PB208_PB204: altern. values or methods;;;;PB208_PB206;OS187_OS186;OS187_OS188: altern. values or methods;;;;RE187_OS188: altern. values or methods;;;;HF176_HF177;HE3_HE4;HE3_HE4(R/R(A)): altern. values or methods;;;;HE4_HE3: altern. values or methods;;;;;;HE4_HE3(R/R(A)): altern. values or methods;;;;AR38_AR36;AR40_AR36;NE20_NE22;NE21_NE22;XE129_XE132;PB206_U238;PB207_U235;PB210_U238;TH232_U238;U238_PB204;D13C(VS SMOW);D17O(VS VSMOW);D18O(PER MIL);D18O(VS PDB);D18O(VS SMOW);D18O(VS VSMOW);D34S(VS CDT);D44_40CA(VS SRM915A);D56FE(VS IRMM-014);DD(VS SMOW);ALBITE(MOL%);ACMITE(MOL%);ANORTHITE(MOL%);ENSTATITE(MOL%);FAYALITE(MOL%);FORSTERITE(MOL%);FERROSILITE(MOL%);HEMATITE(MOL%);LARNITE(MOL%);ORTHOCLASE(MOL%);PSEUDOBROOKITE(MOL%);TEPHROITE(MOL%);ULVOSPINEL(MOL%);WOLLASTONITE(MOL%);AGE(KA);AGE(MA): altern. values or methods;;;;;;;;AGE_PB207_PB206(MA);AGE_PB207_U235(MA);AGE_PB206_U238(MA);
2010;[14544] ROGERS N. W.(2010)  [GeoReM [5149] ];samp. 01.03.25.13;;ETHIOPIAN PLATEAU / NORTHERN ETHIOPIAN PLATEAU / DILB SECTION;;11.9667;39.4204;11.9667;39.4204;3240;3240;OUTCROP;;;SUBAERIAL;VOLCANIC ROCK;ANKARAMITE;;;30000000;30000000;OLIGOCENE;;;;;WHOLE ROCK;;;;;;;;;;;;;;;4.547;8.37;;;;14.91;;;;10.17;13.17;;;;;;;;;;;;;;;;;;;;;;;;;;;;;;;;0.19;;;;;;;;;;;;;;;;;;;;;;;;;;;;;;;;;;;;;;;;;;;;;;;;;;;;;;;465;ICPMS;;;;;;;;;;;;;;;;;;;;;;;;;;;;;;;;;;;;;;;;;;;;;;;;;;;;;34.5;ICPMS;;;;;;;;;;;;;;;;;;;;;;;;;;;;6.69;;;;1.97;ICPMS;;;;;;;;;;;;;;400.8;;;;;825.5;;;;;;;;;;;;;;;;;;;;;;;;;;;;;;;;;;;;;;;;;;;;;0.12669;TIMS_N;;;2.339;TIMS_N;;;;;;;;;;;;;;;;;;;;;;;;;;;;;;;;;;;;;;;;;;;;;;;;;;;;;;;;;;;;;;;;;
2010;[14544] ROGERS N. W.(2010)  [GeoReM [5149] ];samp. 01.03.31.03;;ETHIOPIAN PLATEAU / NORTHERN ETHIOPIAN PLATEAU / IYELA SECTION;;11.955;39.3934;11.955;39.3934;3049;3049;OUTCROP;;;SUBAERIAL;VOLCANIC ROCK;ANKARAMITE;FINE-GRAINED VESICULAR;;30000000;30000000;OLIGOCENE;;;;;WHOLE ROCK;;;;;;;;;;;;;;;3.939;7.78;;;;14.29;;;;9.01;15.52;;;;;;;;;;;;;;;;;;;;;;;;;;;;;;;;0.182;;;;;;;;;;;;;;;;;;;;;;;;;;;;;;;;;;;;;;;;;;;;;;;;;;;;;;;741;ICPMS;;;;;;;;;;;;;;;;;;;;;;;;;;;;;;;;;;;;;;;;;;;;;;;;;;;;;33.4;ICPMS;;;;;;;;;;;;;;;;;;;;;;;;;;;;6.53;;;;1.98;ICPMS;;;;;;;;;;;;;;173.9;;;;;1446;;;;;;;;;;;;;;;;;;;;;;;;;;;;;;;;;;;;;;;;;;;;;0.12592;TIMS_N;;;0.579;TIMS_N;;;;;;;;;;;;;;;;;;;;;;;;;;;;;;;;;;;;;;;;;;;;;;;;;;;;;;;;;;;;;;;;;
2010;[14544] ROGERS N. W.(2010)  [GeoReM [5149] ];samp. 01.03.31.08;;ETHIOPIAN PLATEAU / NORTHERN ETHIOPIAN PLATEAU / IYELA SECTION;;11.9574;39.3061;11.9574;39.3061;2599;2599;OUTCROP;;;SUBAERIAL;VOLCANIC ROCK;ANKARAMITE;FINE-GRAINED;;30000000;30000000;OLIGOCENE;;;;;WHOLE ROCK;;;;;;;;;;;;;;;3.836;7.46;;;;14.39;;;;9.11;16.86;;;;;;;;;;;;;;;;;;;;;;;;;;;;;;;;0.188;;;;;;;;;;;;;;;;;;;;;;;;;;;;;;;;;;;;;;;;;;;;;;;;;;;;;;;718;ICPMS;;;;;;;;;;;;;;;;;;;;;;;;;;;;;;;;;;;;;;;;;;;;;;;;;;;;;32.5;ICPMS;;;;;;;;;;;;;;;;;;;;;;;;;;;;5.97;;;;1.76;ICPMS;;;;;;;;;;;;;;82.883;;;;;1569;;;;;;;;;;;;;;;;;;;;;;;;;;;;;;;;;;;;;;;;;;;;;0.12556;TIMS_N;;;0.254;TIMS_N;;;;;;;;;;;;;;;;;;;;;;;;;;;;;;;;;;;;;;;;;;;;;;;;;;;;;;;;;;;;;;;;;
2010;[14544] ROGERS N. W.(2010)  [GeoReM [5149] ];samp. 01.03.27.15;;ETHIOPIAN PLATEAU / NORTHERN ETHIOPIAN PLATEAU / LALIBELA SECTION;;12.0395;39.0301;12.0395;39.0301;2228;2228;OUTCROP;;;SUBAERIAL;VOLCANIC ROCK;ANKARAMITE;;;30000000;30000000;OLIGOCENE;;;;;WHOLE ROCK;;;;;;;;;;;;;;;5.088;11.08;;;;12.88;;;;9.114;6.668;;;;;;;;;;;;;;;;;;;;;;;;;;;;;;;;0.194;;;;;;;;;;;;;;;;;;;;;;;;;;;;;;;;;;;;;;;;;;;;;;;;;;;;;;;126;ICPMS;;;;;;;;;;;;;;;;;;;;;;;;;;;;;;;;;;;;;;;;;;;;;;;;;;;;;65.8;ICPMS;;;;;;;;;;;;;;;;;;;;;;;;;;;;11.7;;;;3.59;ICPMS;;;;;;;;;;;;;;581.6;;;;;124.8;;;;;;;;;;;;;;;;;;;;;;;;;;;;;;;;;;;;;;;;;;;;;0.14074;TIMS_N;;;22.506;TIMS_N;;;;;;;;;;;;;;;;;;;;;;;;;;;;;;;;;;;;;;;;;;;;;;;;;;;;;;;;;;;;;;;;;
2010;[14544] ROGERS N. W.(2010)  [GeoReM [5149] ];samp. 01.03.27.17;;ETHIOPIAN PLATEAU / NORTHERN ETHIOPIAN PLATEAU / LALIBELA SECTION;;12.0394;39.0316;12.0394;39.0316;2247;2247;OUTCROP;;;SUBAERIAL;VOLCANIC ROCK;ANKARAMITE;;;30000000;30000000;OLIGOCENE;;;;;WHOLE ROCK;;;;;;;;;;;;;;;5.438;10.71;;;;14.88;;;;10.13;7.534;;;;;;;;;;;;;;;;;;;;;;;;;;;;;;;;0.196;;;;;;;;;;;;;;;;;;;;;;;;;;;;;;;;;;;;;;;;;;;;;;;;;;;;;;;169;ICPMS;;;;;;;;;;;;;;;;;;;;;;;;;;;;;;;;;;;;;;;;;;;;;;;;;;;;;61.2;ICPMS;;;;;;;;;;;;;;;;;;;;;;;;;;;;12.6;;;;3.26;ICPMS;;;;;;;;;;;;;;1014;;;;;146.7;;;;;;;;;;;;;;;;;;;;;;;;;;;;;;;;;;;;;;;;;;;;;0.14956;TIMS_N;;;33.412;TIMS_N;;;;;;;;;;;;;;;;;;;;;;;;;;;;;;;;;;;;;;;;;;;;;;;;;;;;;;;;;;;;;;;;;
2010;[14544] ROGERS N. W.(2010)  [GeoReM [5149] ];samp. 01.03.24.07;;ETHIOPIAN PLATEAU / NORTHERN ETHIOPIAN PLATEAU / DILB SECTION;;11.92;39.36;11.96;39.42;;;OUTCROP;;;SUBAERIAL;VOLCANIC ROCK;ANKARAMITE;;;30000000;30000000;OLIGOCENE;;;;;MINERAL / COMPONENT (INCL. GROUNDMASS);OLIVINE;;;;;PRIMARY;;;;;;;;38.082;0.02;0.02;0.023;;;;;20.712;;0.229;40.671;0.29;;;0.289;;;;;;;0.032;EMP (EPMA);;;;;;;;;;;;;;;;;;;;;;;;;;;;;;;;;;;;;;;;;;;;;;;;;;;;;;;;;;;;;;;;;;;;;;;;;;;;;;;;;;;;;;;;;;;;;;;;;;;;;;;;;;;;;;;;;;;;;;;;;;;;;;;;;;;;;;;;;;;;;;;;;;;;;;;;;;;;;;;;;;;;;;;;;;;;;;;;;;;;;;;;;;;;;;;;;;;;;;;;;;;;;;;;;;;;;;;;;;;;;;;;;;;;;;;;;;;;;;;;;;;;;;;;;;;;;;;;;;;;;;;;;;;;;;;;;;;;;;;;;;;;;;;;;;;;;;;;;
2010;[14544] ROGERS N. W.(2010)  [GeoReM [5149] ];samp. 01.03.24.07;;ETHIOPIAN PLATEAU / NORTHERN ETHIOPIAN PLATEAU / DILB SECTION;;11.92;39.36;11.96;39.42;;;OUTCROP;;;SUBAERIAL;VOLCANIC ROCK;ANKARAMITE;;;30000000;30000000;OLIGOCENE;;;;;MINERAL / COMPONENT (INCL. GROUNDMASS);OLIVINE;;;;;PRIMARY;;;;;;;;36.996;0.019;0.003;0;;;;;26.713;;0.242;36.046;0.42;;;0.186;;;;;;;0.02;EMP (EPMA);;;;;;;;;;;;;;;;;;;;;;;;;;;;;;;;;;;;;;;;;;;;;;;;;;;;;;;;;;;;;;;;;;;;;;;;;;;;;;;;;;;;;;;;;;;;;;;;;;;;;;;;;;;;;;;;;;;;;;;;;;;;;;;;;;;;;;;;;;;;;;;;;;;;;;;;;;;;;;;;;;;;;;;;;;;;;;;;;;;;;;;;;;;;;;;;;;;;;;;;;;;;;;;;;;;;;;;;;;;;;;;;;;;;;;;;;;;;;;;;;;;;;;;;;;;;;;;;;;;;;;;;;;;;;;;;;;;;;;;;;;;;;;;;;;;;;;;;;
2010;[14544] ROGERS N. W.(2010)  [GeoReM [5149] ];samp. 01.03.24.07;;ETHIOPIAN PLATEAU / NORTHERN ETHIOPIAN PLATEAU / DILB SECTION;;11.92;39.36;11.96;39.42;;;OUTCROP;;;SUBAERIAL;VOLCANIC ROCK;ANKARAMITE;;;30000000;30000000;OLIGOCENE;;;;;MINERAL / COMPONENT (INCL. GROUNDMASS);OLIVINE;;;;;PRIMARY;;;;;;;;37.252;0.018;0.014;0.022;;;;;18.435;;0.242;42.332;0.249;;;0.27;;;;;;;0.016;EMP (EPMA);;;;;;;;;;;;;;;;;;;;;;;;;;;;;;;;;;;;;;;;;;;;;;;;;;;;;;;;;;;;;;;;;;;;;;;;;;;;;;;;;;;;;;;;;;;;;;;;;;;;;;;;;;;;;;;;;;;;;;;;;;;;;;;;;;;;;;;;;;;;;;;;;;;;;;;;;;;;;;;;;;;;;;;;;;;;;;;;;;;;;;;;;;;;;;;;;;;;;;;;;;;;;;;;;;;;;;;;;;;;;;;;;;;;;;;;;;;;;;;;;;;;;;;;;;;;;;;;;;;;;;;;;;;;;;;;;;;;;;;;;;;;;;;;;;;;;;;;;
2010;[14544] ROGERS N. W.(2010)  [GeoReM [5149] ];samp. 01.03.24.07;;ETHIOPIAN PLATEAU / NORTHERN ETHIOPIAN PLATEAU / DILB SECTION;;11.92;39.36;11.96;39.42;;;OUTCROP;;;SUBAERIAL;VOLCANIC ROCK;ANKARAMITE;;;30000000;30000000;OLIGOCENE;;;;;MINERAL / COMPONENT (INCL. GROUNDMASS);OLIVINE;;;;;PRIMARY;;;;;;;;38.163;0.015;0.038;0.025;;;;;19.257;;0.248;41.793;0.278;;;0.281;;;;;;;0.003;EMP (EPMA);;;;;;;;;;;;;;;;;;;;;;;;;;;;;;;;;;;;;;;;;;;;;;;;;;;;;;;;;;;;;;;;;;;;;;;;;;;;;;;;;;;;;;;;;;;;;;;;;;;;;;;;;;;;;;;;;;;;;;;;;;;;;;;;;;;;;;;;;;;;;;;;;;;;;;;;;;;;;;;;;;;;;;;;;;;;;;;;;;;;;;;;;;;;;;;;;;;;;;;;;;;;;;;;;;;;;;;;;;;;;;;;;;;;;;;;;;;;;;;;;;;;;;;;;;;;;;;;;;;;;;;;;;;;;;;;;;;;;;;;;;;;;;;;;;;;;;;;;
2010;[14544] ROGERS N. W.(2010)  [GeoReM [5149] ];samp. 01.03.24.07;;ETHIOPIAN PLATEAU / NORTHERN ETHIOPIAN PLATEAU / DILB SECTION;;11.92;39.36;11.96;39.42;;;OUTCROP;;;SUBAERIAL;VOLCANIC ROCK;ANKARAMITE;;;30000000;30000000;OLIGOCENE;;;;;MINERAL / COMPONENT (INCL. GROUNDMASS);OLIVINE;;;;;PRIMARY;;;;;;;;38.117;0.026;0.027;0.052;;;;;20.682;;0.282;40.7;0.296;;;0.289;;;;;;;0.027;EMP (EPMA);;;;;;;;;;;;;;;;;;;;;;;;;;;;;;;;;;;;;;;;;;;;;;;;;;;;;;;;;;;;;;;;;;;;;;;;;;;;;;;;;;;;;;;;;;;;;;;;;;;;;;;;;;;;;;;;;;;;;;;;;;;;;;;;;;;;;;;;;;;;;;;;;;;;;;;;;;;;;;;;;;;;;;;;;;;;;;;;;;;;;;;;;;;;;;;;;;;;;;;;;;;;;;;;;;;;;;;;;;;;;;;;;;;;;;;;;;;;;;;;;;;;;;;;;;;;;;;;;;;;;;;;;;;;;;;;;;;;;;;;;;;;;;;;;;;;;;;;;
2010;[14544] ROGERS N. W.(2010)  [GeoReM [5149] ];samp. 01.03.24.07;;ETHIOPIAN PLATEAU / NORTHERN ETHIOPIAN PLATEAU / DILB SECTION;;11.92;39.36;11.96;39.42;;;OUTCROP;;;SUBAERIAL;VOLCANIC ROCK;ANKARAMITE;;;30000000;30000000;OLIGOCENE;;;;;MINERAL / COMPONENT (INCL. GROUNDMASS);OLIVINE;;;;;PRIMARY;;;;;;;;37.21;0.012;0.014;0.01;;;;;27.594;;0.219;35.323;0.447;;;0.174;;;;;;;0.005;EMP (EPMA);;;;;;;;;;;;;;;;;;;;;;;;;;;;;;;;;;;;;;;;;;;;;;;;;;;;;;;;;;;;;;;;;;;;;;;;;;;;;;;;;;;;;;;;;;;;;;;;;;;;;;;;;;;;;;;;;;;;;;;;;;;;;;;;;;;;;;;;;;;;;;;;;;;;;;;;;;;;;;;;;;;;;;;;;;;;;;;;;;;;;;;;;;;;;;;;;;;;;;;;;;;;;;;;;;;;;;;;;;;;;;;;;;;;;;;;;;;;;;;;;;;;;;;;;;;;;;;;;;;;;;;;;;;;;;;;;;;;;;;;;;;;;;;;;;;;;;;;;
2010;[14544] ROGERS N. W.(2010)  [GeoReM [5149] ];samp. 01.03.24.07;;ETHIOPIAN PLATEAU / NORTHERN ETHIOPIAN PLATEAU / DILB SECTION;;11.92;39.36;11.96;39.42;;;OUTCROP;;;SUBAERIAL;VOLCANIC ROCK;ANKARAMITE;;;30000000;30000000;OLIGOCENE;;;;;MINERAL / COMPONENT (INCL. GROUNDMASS);OLIVINE;;;;;PRIMARY;;;;;;;;37.84;0.014;0.021;0.026;;;;;22.87;;0.217;39.174;0.338;;;0.283;;;;;;;0.008;EMP (EPMA);;;;;;;;;;;;;;;;;;;;;;;;;;;;;;;;;;;;;;;;;;;;;;;;;;;;;;;;;;;;;;;;;;;;;;;;;;;;;;;;;;;;;;;;;;;;;;;;;;;;;;;;;;;;;;;;;;;;;;;;;;;;;;;;;;;;;;;;;;;;;;;;;;;;;;;;;;;;;;;;;;;;;;;;;;;;;;;;;;;;;;;;;;;;;;;;;;;;;;;;;;;;;;;;;;;;;;;;;;;;;;;;;;;;;;;;;;;;;;;;;;;;;;;;;;;;;;;;;;;;;;;;;;;;;;;;;;;;;;;;;;;;;;;;;;;;;;;;;
2010;[14544] ROGERS N. W.(2010)  [GeoReM [5149] ];samp. 01.03.24.07;;ETHIOPIAN PLATEAU / NORTHERN ETHIOPIAN PLATEAU / DILB SECTION;;11.92;39.36;11.96;39.42;;;OUTCROP;;;SUBAERIAL;VOLCANIC ROCK;ANKARAMITE;;;30000000;30000000;OLIGOCENE;;;;;MINERAL / COMPONENT (INCL. GROUNDMASS);OLIVINE;;;;;PRIMARY;;;;;;;;37.152;0.01;0.013;0.029;;;;;22.702;;0.233;38.998;0.314;;;0.237;;;;;;;0.004;EMP (EPMA);;;;;;;;;;;;;;;;;;;;;;;;;;;;;;;;;;;;;;;;;;;;;;;;;;;;;;;;;;;;;;;;;;;;;;;;;;;;;;;;;;;;;;;;;;;;;;;;;;;;;;;;;;;;;;;;;;;;;;;;;;;;;;;;;;;;;;;;;;;;;;;;;;;;;;;;;;;;;;;;;;;;;;;;;;;;;;;;;;;;;;;;;;;;;;;;;;;;;;;;;;;;;;;;;;;;;;;;;;;;;;;;;;;;;;;;;;;;;;;;;;;;;;;;;;;;;;;;;;;;;;;;;;;;;;;;;;;;;;;;;;;;;;;;;;;;;;;;;
2010;[14544] ROGERS N. W.(2010)  [GeoReM [5149] ];samp. 01.03.24.08;;ETHIOPIAN PLATEAU / NORTHERN ETHIOPIAN PLATEAU / DILB SECTION;;11.945;39.3973;11.945;39.3973;3527;3527;OUTCROP;;;SUBAERIAL;VOLCANIC ROCK;ANKARAMITE;;;30000000;30000000;OLIGOCENE;;;;;MINERAL / COMPONENT (INCL. GROUNDMASS);OLIVINE;;;;;PRIMARY;;;;;;;;38.502;0.037;0.037;0.048;;;;;18.724;;0.297;42.237;0.249;;;0.292;;;;;;;0.036;EMP (EPMA);;;;;;;;;;;;;;;;;;;;;;;;;;;;;;;;;;;;;;;;;;;;;;;;;;;;;;;;;;;;;;;;;;;;;;;;;;;;;;;;;;;;;;;;;;;;;;;;;;;;;;;;;;;;;;;;;;;;;;;;;;;;;;;;;;;;;;;;;;;;;;;;;;;;;;;;;;;;;;;;;;;;;;;;;;;;;;;;;;;;;;;;;;;;;;;;;;;;;;;;;;;;;;;;;;;;;;;;;;;;;;;;;;;;;;;;;;;;;;;;;;;;;;;;;;;;;;;;;;;;;;;;;;;;;;;;;;;;;;;;;;;;;;;;;;;;;;;;;
2010;[14544] ROGERS N. W.(2010)  [GeoReM [5149] ];samp. 01.03.24.08;;ETHIOPIAN PLATEAU / NORTHERN ETHIOPIAN PLATEAU / DILB SECTION;;11.945;39.3973;11.945;39.3973;3527;3527;OUTCROP;;;SUBAERIAL;VOLCANIC ROCK;ANKARAMITE;;;30000000;30000000;OLIGOCENE;;;;;MINERAL / COMPONENT (INCL. GROUNDMASS);OLIVINE;;;;;PRIMARY;;;;;;;;40.291;0.01;0.032;0.108;;;;;9.814;;0.236;49.108;0.151;;;0.46;;;;;;;0.024;EMP (EPMA);;;;;;;;;;;;;;;;;;;;;;;;;;;;;;;;;;;;;;;;;;;;;;;;;;;;;;;;;;;;;;;;;;;;;;;;;;;;;;;;;;;;;;;;;;;;;;;;;;;;;;;;;;;;;;;;;;;;;;;;;;;;;;;;;;;;;;;;;;;;;;;;;;;;;;;;;;;;;;;;;;;;;;;;;;;;;;;;;;;;;;;;;;;;;;;;;;;;;;;;;;;;;;;;;;;;;;;;;;;;;;;;;;;;;;;;;;;;;;;;;;;;;;;;;;;;;;;;;;;;;;;;;;;;;;;;;;;;;;;;;;;;;;;;;;;;;;;;;
2010;[14544] ROGERS N. W.(2010)  [GeoReM [5149] ];samp. 01.03.24.08;;ETHIOPIAN PLATEAU / NORTHERN ETHIOPIAN PLATEAU / DILB SECTION;;11.945;39.3973;11.945;39.3973;3527;3527;OUTCROP;;;SUBAERIAL;VOLCANIC ROCK;ANKARAMITE;;;30000000;30000000;OLIGOCENE;;;;;MINERAL / COMPONENT (INCL. GROUNDMASS);OLIVINE;;;;;PRIMARY;;;;;;;;38.684;0.017;0.016;0.023;;;;;17.684;;0.317;42.983;0.263;;;0.291;;;;;;;0.031;EMP (EPMA);;;;;;;;;;;;;;;;;;;;;;;;;;;;;;;;;;;;;;;;;;;;;;;;;;;;;;;;;;;;;;;;;;;;;;;;;;;;;;;;;;;;;;;;;;;;;;;;;;;;;;;;;;;;;;;;;;;;;;;;;;;;;;;;;;;;;;;;;;;;;;;;;;;;;;;;;;;;;;;;;;;;;;;;;;;;;;;;;;;;;;;;;;;;;;;;;;;;;;;;;;;;;;;;;;;;;;;;;;;;;;;;;;;;;;;;;;;;;;;;;;;;;;;;;;;;;;;;;;;;;;;;;;;;;;;;;;;;;;;;;;;;;;;;;;;;;;;;;
2010;[14544] ROGERS N. W.(2010)  [GeoReM [5149] ];samp. 01.03.24.09;;ETHIOPIAN PLATEAU / NORTHERN ETHIOPIAN PLATEAU / DILB SECTION;;11.92;39.36;11.96;39.42;;;OUTCROP;;;SUBAERIAL;VOLCANIC ROCK;ANKARAMITE;;;30000000;30000000;OLIGOCENE;;;;;MINERAL / COMPONENT (INCL. GROUNDMASS);OLIVINE;;;;;PRIMARY;;;;;;;;40.581;0.037;0.041;0.036;;;;;13.626;;0.29;44.71;0.195;;;0.291;;;;;;;0.107;EMP (EPMA);;;;;;;;;;;;;;;;;;;;;;;;;;;;;;;;;;;;;;;;;;;;;;;;;;;;;;;;;;;;;;;;;;;;;;;;;;;;;;;;;;;;;;;;;;;;;;;;;;;;;;;;;;;;;;;;;;;;;;;;;;;;;;;;;;;;;;;;;;;;;;;;;;;;;;;;;;;;;;;;;;;;;;;;;;;;;;;;;;;;;;;;;;;;;;;;;;;;;;;;;;;;;;;;;;;;;;;;;;;;;;;;;;;;;;;;;;;;;;;;;;;;;;;;;;;;;;;;;;;;;;;;;;;;;;;;;;;;;;;;;;;;;;;;;;;;;;;;;
2010;[14544] ROGERS N. W.(2010)  [GeoReM [5149] ];samp. 01.03.24.09;;ETHIOPIAN PLATEAU / NORTHERN ETHIOPIAN PLATEAU / DILB SECTION;;11.92;39.36;11.96;39.42;;;OUTCROP;;;SUBAERIAL;VOLCANIC ROCK;ANKARAMITE;;;30000000;30000000;OLIGOCENE;;;;;MINERAL / COMPONENT (INCL. GROUNDMASS);OLIVINE;;;;;PRIMARY;;;;;;;;40.43;0.028;0.052;0.031;;;;;13.724;;0.287;44.894;0.19;;;0.3;;;;;;;0.064;EMP (EPMA);;;;;;;;;;;;;;;;;;;;;;;;;;;;;;;;;;;;;;;;;;;;;;;;;;;;;;;;;;;;;;;;;;;;;;;;;;;;;;;;;;;;;;;;;;;;;;;;;;;;;;;;;;;;;;;;;;;;;;;;;;;;;;;;;;;;;;;;;;;;;;;;;;;;;;;;;;;;;;;;;;;;;;;;;;;;;;;;;;;;;;;;;;;;;;;;;;;;;;;;;;;;;;;;;;;;;;;;;;;;;;;;;;;;;;;;;;;;;;;;;;;;;;;;;;;;;;;;;;;;;;;;;;;;;;;;;;;;;;;;;;;;;;;;;;;;;;;;;
2010;[14544] ROGERS N. W.(2010)  [GeoReM [5149] ];samp. 01.03.24.09;;ETHIOPIAN PLATEAU / NORTHERN ETHIOPIAN PLATEAU / DILB SECTION;;11.92;39.36;11.96;39.42;;;OUTCROP;;;SUBAERIAL;VOLCANIC ROCK;ANKARAMITE;;;30000000;30000000;OLIGOCENE;;;;;MINERAL / COMPONENT (INCL. GROUNDMASS);OLIVINE;;;;;PRIMARY;;;;;;;;39.913;0.031;0.06;0.048;;;;;13.49;;0.315;43.978;0.197;;;0.294;;;;;;;0.161;EMP (EPMA);;;;;;;;;;;;;;;;;;;;;;;;;;;;;;;;;;;;;;;;;;;;;;;;;;;;;;;;;;;;;;;;;;;;;;;;;;;;;;;;;;;;;;;;;;;;;;;;;;;;;;;;;;;;;;;;;;;;;;;;;;;;;;;;;;;;;;;;;;;;;;;;;;;;;;;;;;;;;;;;;;;;;;;;;;;;;;;;;;;;;;;;;;;;;;;;;;;;;;;;;;;;;;;;;;;;;;;;;;;;;;;;;;;;;;;;;;;;;;;;;;;;;;;;;;;;;;;;;;;;;;;;;;;;;;;;;;;;;;;;;;;;;;;;;;;;;;;;;
2010;[14544] ROGERS N. W.(2010)  [GeoReM [5149] ];samp. 01.03.24.09;;ETHIOPIAN PLATEAU / NORTHERN ETHIOPIAN PLATEAU / DILB SECTION;;11.92;39.36;11.96;39.42;;;OUTCROP;;;SUBAERIAL;VOLCANIC ROCK;ANKARAMITE;;;30000000;30000000;OLIGOCENE;;;;;MINERAL / COMPONENT (INCL. GROUNDMASS);OLIVINE;;;;;PRIMARY;;;;;;;;40.572;0.005;0.044;0.057;;;;;13.7;;0.315;44.852;0.183;;;0.293;;;;;;;0.105;EMP (EPMA);;;;;;;;;;;;;;;;;;;;;;;;;;;;;;;;;;;;;;;;;;;;;;;;;;;;;;;;;;;;;;;;;;;;;;;;;;;;;;;;;;;;;;;;;;;;;;;;;;;;;;;;;;;;;;;;;;;;;;;;;;;;;;;;;;;;;;;;;;;;;;;;;;;;;;;;;;;;;;;;;;;;;;;;;;;;;;;;;;;;;;;;;;;;;;;;;;;;;;;;;;;;;;;;;;;;;;;;;;;;;;;;;;;;;;;;;;;;;;;;;;;;;;;;;;;;;;;;;;;;;;;;;;;;;;;;;;;;;;;;;;;;;;;;;;;;;;;;;
2010;[14544] ROGERS N. W.(2010)  [GeoReM [5149] ];samp. 01.03.24.09;;ETHIOPIAN PLATEAU / NORTHERN ETHIOPIAN PLATEAU / DILB SECTION;;11.92;39.36;11.96;39.42;;;OUTCROP;;;SUBAERIAL;VOLCANIC ROCK;ANKARAMITE;;;30000000;30000000;OLIGOCENE;;;;;MINERAL / COMPONENT (INCL. GROUNDMASS);OLIVINE;;;;;PRIMARY;;;;;;;;38.036;0.034;0.074;0.012;;;;;27.663;;0.293;33.319;0.385;;;0.182;;;;;;;0.062;EMP (EPMA);;;;;;;;;;;;;;;;;;;;;;;;;;;;;;;;;;;;;;;;;;;;;;;;;;;;;;;;;;;;;;;;;;;;;;;;;;;;;;;;;;;;;;;;;;;;;;;;;;;;;;;;;;;;;;;;;;;;;;;;;;;;;;;;;;;;;;;;;;;;;;;;;;;;;;;;;;;;;;;;;;;;;;;;;;;;;;;;;;;;;;;;;;;;;;;;;;;;;;;;;;;;;;;;;;;;;;;;;;;;;;;;;;;;;;;;;;;;;;;;;;;;;;;;;;;;;;;;;;;;;;;;;;;;;;;;;;;;;;;;;;;;;;;;;;;;;;;;;
2010;[14544] ROGERS N. W.(2010)  [GeoReM [5149] ];samp. 01.03.24.09;;ETHIOPIAN PLATEAU / NORTHERN ETHIOPIAN PLATEAU / DILB SECTION;;11.92;39.36;11.96;39.42;;;OUTCROP;;;SUBAERIAL;VOLCANIC ROCK;ANKARAMITE;;;30000000;30000000;OLIGOCENE;;;;;MINERAL / COMPONENT (INCL. GROUNDMASS);OLIVINE;;;;;PRIMARY;;;;;;;;41.137;0.002;0.011;0.052;;;;;13.7;;0.316;45.634;0.195;;;0.316;;;;;;;0.013;EMP (EPMA);;;;;;;;;;;;;;;;;;;;;;;;;;;;;;;;;;;;;;;;;;;;;;;;;;;;;;;;;;;;;;;;;;;;;;;;;;;;;;;;;;;;;;;;;;;;;;;;;;;;;;;;;;;;;;;;;;;;;;;;;;;;;;;;;;;;;;;;;;;;;;;;;;;;;;;;;;;;;;;;;;;;;;;;;;;;;;;;;;;;;;;;;;;;;;;;;;;;;;;;;;;;;;;;;;;;;;;;;;;;;;;;;;;;;;;;;;;;;;;;;;;;;;;;;;;;;;;;;;;;;;;;;;;;;;;;;;;;;;;;;;;;;;;;;;;;;;;;;
2010;[14544] ROGERS N. W.(2010)  [GeoReM [5149] ];samp. 01.03.24.09;;ETHIOPIAN PLATEAU / NORTHERN ETHIOPIAN PLATEAU / DILB SECTION;;11.92;39.36;11.96;39.42;;;OUTCROP;;;SUBAERIAL;VOLCANIC ROCK;ANKARAMITE;;;30000000;30000000;OLIGOCENE;;;;;MINERAL / COMPONENT (INCL. GROUNDMASS);OLIVINE;;;;;PRIMARY;;;;;;;;40.011;0.03;0.034;0.098;;;;;13.722;;0.329;44.49;0.189;;;0.337;;;;;;;0.008;EMP (EPMA);;;;;;;;;;;;;;;;;;;;;;;;;;;;;;;;;;;;;;;;;;;;;;;;;;;;;;;;;;;;;;;;;;;;;;;;;;;;;;;;;;;;;;;;;;;;;;;;;;;;;;;;;;;;;;;;;;;;;;;;;;;;;;;;;;;;;;;;;;;;;;;;;;;;;;;;;;;;;;;;;;;;;;;;;;;;;;;;;;;;;;;;;;;;;;;;;;;;;;;;;;;;;;;;;;;;;;;;;;;;;;;;;;;;;;;;;;;;;;;;;;;;;;;;;;;;;;;;;;;;;;;;;;;;;;;;;;;;;;;;;;;;;;;;;;;;;;;;;