Year;CITATION;SAMPLE NAME;UNIQUE_ID;LOCATION;LOCATION COMMENT;LATITUDE (MIN.);LONGITUDE (MIN.);LATITUDE (MAX.);LONGITUDE (MAX.);ELEVATION (MIN.);ELEVATION (MAX.);SAMPLING TECHNIQUE;DRILLING DEPTH (MIN.);DRILLING DEPTH (MAX.);LAND/SEA (SAMPLING);ROCK TYPE;ROCK NAME;ROCK TEXTURE;SAMPLE COMMENT;AGE (MIN.);AGE (MAX.);GEOLOGICAL AGE;GEOLOGICAL AGE PREFIX;ERUPTION YEAR;ALTERATION;ALTERATION TYPE;TYPE OF MATERIAL;MINERAL / COMPONENT;SPOT (MINERAL);CRYSTAL;RIM / CORE (MINERAL GRAINS);GRAIN SIZE;PRIMARY/SECONDARY;INCLUSION TYPE;SPOT (INCLUSION);MINERAL (INCLUSION);RIM / CORE (INCLUSION);HOSTMINERAL (INCLUSION);HEATING;HEATING TEMPERATURE (?C);SIO2(WT%);TIO2(WT%);AL2O3(WT%);CR2O3(WT%);V2O3(WT%);V2O5(WT%);FE2O3T(WT%);FE2O3(WT%);FEOT(WT%);FEO(WT%);CAO(WT%);MGO(WT%);MNO(WT%);BAO(WT%);SRO(WT%);NIO(WT%);ZNO(WT%);COO(WT%);K2O(WT%);;;;NA2O(WT%);;;;P2O5(WT%);H2O(WT%);H2OP(WT%);H2OM(WT%);CO2(WT%);F(WT%);CL(WT%);CL2(WT%);SO3(WT%);S(WT%);LOI(WT%);O(WT%);SI(WT%);AL(WT%);TI(WT%);FE(WT%);MG(WT%);MN(WT%);CA(WT%);K(WT%): altern. values or methods;;;;NA(WT%);CR(WT%);NI(WT%);HE(CCMSTP/G);HE3(CCMSTP/G);HE4(CCMSTP/G): altern. values or methods;;;;LI(PPM);BE(PPM);B(PPM);F(PPM);NE20(CCMSTP/G);NE22(CCMSTP/G);P(PPM);S(PPM);CL(PPM);AR36(CCMSTP/G);AR40(CCMSTP/G);AR40(MOL/G): altern. values or methods;;;;AR40(PPB);K(PPM);SC(PPM): altern. values or methods;;;;;;TI(PPM);V(PPM): altern. values or methods;;;;CR(PPM): altern. values or methods;;;;MN(PPM);FE(PPM);CO(PPM): altern. values or methods;;;;;;NI(PPM): altern. values or methods;;;;;;CU(PPM): altern. values or methods;;;;ZN(PPM): altern. values or methods;;;;GA(PPM): altern. values or methods;;;;GE(PPM);AS(PPM);KR84(CCMSTP/G);RB(PPM): altern. values or methods;;;;SR(PPM): altern. values or methods;;;;Y(PPM): altern. values or methods;;;;ZR(PPM): altern. values or methods;;;;NB(PPM): altern. values or methods;;;;MO(PPM);RU(PPB);RH(PPB);PD(PPB);IN(PPM);SN(PPM);SB(PPM);XE132(CCMSTP/G);CS(PPM);BA(PPM): altern. values or methods;;;;LA(PPM): altern. values or methods;;;;CE(PPM): altern. values or methods;;;;PR(PPM): altern. values or methods;;;;ND(PPM): altern. values or methods;;;;SM(PPM): altern. values or methods;;;;EU(PPM): altern. values or methods;;;;GD(PPM);TB(PPM): altern. values or methods;;;;DY(PPM);HO(PPM);ER(PPM);TM(PPM);YB(PPM): altern. values or methods;;;;LU(PPM);HF(PPM): altern. values or methods;;;;TA(PPM);W(PPM);RE(PPB): altern. values or methods;;;;RE(PPT);OS(PPB): altern. values or methods;;;;OS(PPT);IR(PPB);PT(PPB);AU(PPB);HG(PPB);TL(PPM);PB(PPM): altern. values or methods;;;;PB210_ACT(DPM/G);TH(PPM): altern. values or methods;;;;TH(PPB);U(PPM): altern. values or methods;;;;U(PPB);CO2(PPM);H2O(PPM);ND143_ND144;ND148_ND144;SM147_ND144;SR87_SR86;RB87_SR86;PB206_PB204: altern. values or methods;;;;PB206_PB207;PB206_PB208;PB207_PB204: altern. values or methods;;;;PB207_PB206;PB208_PB204: altern. values or methods;;;;PB208_PB206;OS187_OS186;OS187_OS188: altern. values or methods;;;;RE187_OS188: altern. values or methods;;;;HF176_HF177;HE3_HE4;HE3_HE4(R/R(A)): altern. values or methods;;;;HE4_HE3: altern. values or methods;;;;;;HE4_HE3(R/R(A)): altern. values or methods;;;;AR38_AR36;AR40_AR36;NE20_NE22;NE21_NE22;XE129_XE132;PB206_U238;PB207_U235;PB210_U238;TH232_U238;U238_PB204;D13C(VS SMOW);D17O(VS VSMOW);D18O(PER MIL);D18O(VS PDB);D18O(VS SMOW);D18O(VS VSMOW);D34S(VS CDT);D44_40CA(VS SRM915A);D56FE(VS IRMM-014);DD(VS SMOW);ALBITE(MOL%);ACMITE(MOL%);ANORTHITE(MOL%);ENSTATITE(MOL%);FAYALITE(MOL%);FORSTERITE(MOL%);FERROSILITE(MOL%);HEMATITE(MOL%);LARNITE(MOL%);ORTHOCLASE(MOL%);PSEUDOBROOKITE(MOL%);TEPHROITE(MOL%);ULVOSPINEL(MOL%);WOLLASTONITE(MOL%);AGE(KA);AGE(MA): altern. values or methods;;;;;;;;AGE_PB207_PB206(MA);AGE_PB207_U235(MA);AGE_PB206_U238(MA);
2009;[13759] GEORGIEV S. V.(2009)  [GeoReM [4995] ];samp. SG 090A;;CARPATHIAN BELT AND PANNONIAN BASIN / SOUTHERN PANNONIAN-EASTERN CARPATHIAN (TISZA-DACIA / SREDNOGORIE ARC;KRUSHEVETS, YAMBOL-BURGAS DEPRESSION;42.2945;27.4999;42.2945;27.4999;;;OUTCROP;;;SUBAERIAL;VOLCANIC ROCK;ANKARAMITE;;;;;;;;;;WHOLE ROCK;;;;;;;;;;;;;;49.0587519426028;0.667852546638369;12.3923750320675;;;;;;10.5520702368862;;12.1061525120796;10.2404057151217;0.190815013325248;;;;;;3.33926273319185;XRF;;;1.08128507550974;XRF;;;0.339226690355997;;;;;;;;0.0318025022208747;;5.28688524590164;;;;;;;;;;;;;;;;;;;;;;;;;;;;;;;;;;;;;;;36.9666666666667;ICPMS;;;;;;264.427;ICPMS;;;437.817;ICPMS;;;;;42.7446666666667;ICPMS;;;;;83.83;ICPMS;;;;;;;;;;;;;;;;;;;;62.6676666666667;ICPMS;;;678.199666666667;ICPMS;;;13.1676666666667;ICPMS;;;38.5643333333333;ICPMS;;;1.53833333333333;ICPMS;;;;;;;;;;;2.63566666666667;218.449333333333;ICPMS;;;13.1943333333333;ICPMS;;;25.764;ICPMS;;;3.36233333333333;ICPMS;;;14.487;ICPMS;;;3.709;ICPMS;;;1.134;ICPMS;;;2.92;0.48;ICPMS;;;2.55333333333333;0.415666666666667;1.266;0.169333333333333;1.437;ICPMS;;;0.216666666666667;0.842;ICPMS;;;0.136;;;;;;;;;;;;;;;;;8.159;ICPMS;;;;2.919;ICPMS;;;;0.881666666666667;ICPMS;;;;;;;;;;;;;;;;;;;;;;;;;;;;;;;;;;;;;;;;;;;;;;;;;;;;;;;;;;;;;;;;;;;;;;;;;;;;;;;;;;;;;;;;;;;;;;;;;;
2009;[14094] LONGPRE M.-A. (2009);samp. TN1;;CANARY ISLANDS / TENERIFE / EL PALMAR FORMATION;TENO MASSIF;28.3341;-16.8621;28.3341;-16.8621;910;910;OUTCROP;;;SUBAERIAL;VOLCANIC ROCK;ANKARAMITE;;;;;NEOGENE;;;;;WHOLE ROCK;;;;;;;;;;;;;;44.38;3.42;14.61;;;;;;12.95;;10.41;8.19;0.18;;;;;;1.23;XRF;;;3.15;XRF;;;0.61;;;;;;;;;;0.79;;;;;;;;;;;;;;;;;;;;;;;;;;;;;;;;;;;;;;;;;;;;;;322;XRF;;;382;XRF;;;;;67;XRF;;;;;145;XRF;;;;;;;;;121;XRF;;;21;XRF;;;;;;28;XRF;;;798;XRF;;;28;XRF;;;311;XRF;;;74;XRF;;;;;;;;;;;;323;XRF;;;32;XRF;;;93;XRF;;;7;XRF;;;;;;;;;;;;;;;;;;;;;;;;;;;;;;;;;;;;;;;;;;;;;;;;;;4;XRF;;;;0;XRF;;;;;;;;;;;;;;;;;;;;;;;;;;;;;;;;;;;;;;;;;;;;;;;;;;;;;;;;;;;;;;;;;;;;;;;;;;;;;;;;;;;;;;;;;;;;;;;;;;;;;;;
2009;[14094] LONGPRE M.-A. (2009);samp. TN5;;CANARY ISLANDS / TENERIFE / EL PALMAR FORMATION;TENO MASSIF;28.3219;-16.8465;28.3219;-16.8465;765;765;OUTCROP;;;SUBAERIAL;VOLCANIC ROCK;ANKARAMITE;;;;;NEOGENE;;;;;WHOLE ROCK;;;;;;;;;;;;;;44.3;2.25;9.59;;;;;;12.58;;10.99;17.02;0.17;;;;;;0.59;XRF;;;1.59;XRF;;;0.25;;;;;;;;;;0.44;;;;;;;;;;;;;;;;;;;;;;;;;;;;;;;;;;;;;;;;;;;;;;273;XRF;;;1064;XRF;;;;;90;XRF;;;;;496;XRF;;;;;;;;;92;XRF;;;13;XRF;;;;;;17;XRF;;;419;XRF;;;17;XRF;;;130;XRF;;;35;XRF;;;;;;;;;;;;143;XRF;;;32;XRF;;;56;XRF;;;0;XRF;;;;;;;;;;;;;;;;;;;;;;;;;;;;;;;;;;;;;;;;;;;;;;;;;;4;XRF;;;;0;XRF;;;;;;;;;;;;;;;;;;;;;;;;;;;;;;;;;;;;;;;;;;;;;;;;;;;;;;;;;;;;;;;;;;;;;;;;;;;;;;;;;;;;;;;;;;;;;;;;;;;;;;;
2009;[14094] LONGPRE M.-A. (2009);samp. TN7;;CANARY ISLANDS / TENERIFE / EL PALMAR FORMATION;TENO MASSIF;28.3271;-16.8558;28.3271;-16.8558;825;825;OUTCROP;;;SUBAERIAL;VOLCANIC ROCK;ANKARAMITE;;;;;NEOGENE;;;;;WHOLE ROCK;;;;;;;;;;;;;;43.98;3.44;15.14;;;;;;11.81;;10.69;7.25;0.17;;;;;;1.14;XRF;;;3.65;XRF;;;0.71;;;;;;;;;;2.08;;;;;;;;;;;;;;;;;;;;;;;;;;;;;;;;;;;;;;;;;;;;;;313;XRF;;;212;XRF;;;;;51;XRF;;;;;98;XRF;;;;;;;;;118;XRF;;;22;XRF;;;;;;44;XRF;;;938;XRF;;;28;XRF;;;331;XRF;;;86;XRF;;;;;;;;;;;;417;XRF;;;213;XRF;56.3;ICPMS;86;XRF;112.9;ICPMS;52;XRF;13.53;ICPMS;50.8;ICPMS;;;9.57;ICPMS;;;2.99;ICPMS;;;8.22;1.17;ICPMS;;;5.63;0.95;2.19;0.29;1.61;ICPMS;;;0.22;;;;;;;;;;;;;;;;;;;;;;10;XRF;;;;0;XRF;;;;;;;;;;;;;;;;;;;;;;;;;;;;;;;;;;;;;;;;;;;;;;;;;;;;;;;;;;;;;;;;;;;;;;;;;;;;;;;;;;;;;;;;;;;;;;;;;;;;;;;
2009;[14094] LONGPRE M.-A. (2009);samp. TN8;;CANARY ISLANDS / TENERIFE / EL PALMAR FORMATION;TENO MASSIF;28.3206;-16.8555;28.3206;-16.8555;690;690;OUTCROP;;;SUBAERIAL;VOLCANIC ROCK;ANKARAMITE;;;;;NEOGENE;;;;;WHOLE ROCK;;;;;;;;;;;;;;43.18;3.54;14.02;;;;;;12.72;;10.44;9.82;0.17;;;;;;1.14;XRF;;;2.34;XRF;;;0.62;;;;;;;;;;1.89;;;;;;;;;;;;;;;;;;;;;;;;;;;;;;;;;;;;;;;;;;;;;;327;XRF;;;528;XRF;;;;;59;XRF;;;;;219;XRF;;;;;;;;;112;XRF;;;18;XRF;;;;;;26;XRF;;;748;XRF;;;30;XRF;;;291;XRF;;;73;XRF;;;;;;;;;;;;349;XRF;;;42;XRF;49.7;ICPMS;82;XRF;100.7;ICPMS;7;XRF;12.34;ICPMS;46.2;ICPMS;;;9.04;ICPMS;;;2.82;ICPMS;;;7.91;1.12;ICPMS;;;5.54;0.97;2.29;0.32;1.71;ICPMS;;;0.24;;;;;;;;;;;;;;;;;;;;;;0;XRF;;;;9;XRF;;;;;;;;;;;;;;;;;;;;;;;;;;;;;;;;;;;;;;;;;;;;;;;;;;;;;;;;;;;;;;;;;;;;;;;;;;;;;;;;;;;;;;;;;;;;;;;;;;;;;;;
2009;[14094] LONGPRE M.-A. (2009);samp. TN9;;CANARY ISLANDS / TENERIFE / EL PALMAR FORMATION;TENO MASSIF;28.321;-16.8558;28.321;-16.8558;695;695;OUTCROP;;;SUBAERIAL;VOLCANIC ROCK;ANKARAMITE;;;;;NEOGENE;;;;;WHOLE ROCK;;;;;;;;;;;;;;44.4;3.36;15.48;;;;;;12.17;;10.7;6.89;0.17;;;;;;1.26;XRF;;;2.92;XRF;;;0.59;;;;;;;;;;1.86;;;;;;;;;;;;;;;;;;;;;;;;;;;;;;;;;;;;;;;;;;;;;;307;XRF;;;177;XRF;;;;;51;XRF;;;;;94;XRF;;;;;;;;;117;XRF;;;21;XRF;;;;;;30;XRF;;;754;XRF;;;29;XRF;;;297;XRF;;;71;XRF;;;;;;;;;;;;314;XRF;;;39;XRF;;;88;XRF;;;10;XRF;;;;;;;;;;;;;;;;;;;;;;;;;;;;;;;;;;;;;;;;;;;;;;;;;;0;XRF;;;;0;XRF;;;;;;;;;;;;;;;;;;;;;;;;;;;;;;;;;;;;;;;;;;;;;;;;;;;;;;;;;;;;;;;;;;;;;;;;;;;;;;;;;;;;;;;;;;;;;;;;;;;;;;;
2009;[14094] LONGPRE M.-A. (2009);samp. TN10;;CANARY ISLANDS / TENERIFE / EL PALMAR FORMATION;TENO MASSIF;28.3236;-16.8569;28.3236;-16.8569;750;750;OUTCROP;;;SUBAERIAL;VOLCANIC ROCK;ANKARAMITE;;;;;NEOGENE;;;;;WHOLE ROCK;;;;;;;;;;;;;;44.32;2.56;10.95;;;;;;12.53;;11.66;14.34;0.17;;;;;;0.69;XRF;;;1.88;XRF;;;0.3;;;;;;;;;;0.5;;;;;;;;;;;;;;;;;;;;;;;;;;;;;;;;;;;;;;;;;;;;;;309;XRF;;;896;XRF;;;;;74;XRF;;;;;372;XRF;;;;;;;;;96;XRF;;;17;XRF;;;;;;18;XRF;;;501;XRF;;;20;XRF;;;155;XRF;;;41;XRF;;;;;;;;;;;;203;XRF;;;25;XRF;30.8;ICPMS;56;XRF;61.5;ICPMS;0;XRF;7.41;ICPMS;28.2;ICPMS;;;5.5;ICPMS;;;1.78;ICPMS;;;5.16;0.78;ICPMS;;;3.92;0.71;1.73;0.24;1.4;ICPMS;;;0.2;;;;;;;;;;;;;;;;;;;;;;0;XRF;;;;0;XRF;;;;;;;;;;;;;;;;;;;;;;;;;;;;;;;;;;;;;;;;;;;;;;;;;;;;;;;;;;;;;;;;;;;;;;;;;;;;;;;;;;;;;;;;;;;;;;;;;;;;;;;
2009;[14094] LONGPRE M.-A. (2009);samp. TN13;;CANARY ISLANDS / TENERIFE / EL PALMAR FORMATION;TENO MASSIF;28.319;-16.8524;28.319;-16.8524;800;800;OUTCROP;;;SUBAERIAL;VOLCANIC ROCK;ANKARAMITE;;;;;NEOGENE;;;;;WHOLE ROCK;;;;;;;;;;;;;;44.68;2.8;11.93;;;;;;12.41;;11.84;12.16;0.18;;;;;;0.87;XRF;;;2.21;XRF;;;0.39;;;;;;;;;;0.63;;;;;;;;;;;;;;;;;;;;;;;;;;;;;;;;;;;;;;;;;;;;;;305;XRF;;;779;XRF;;;;;67;XRF;;;;;278;XRF;;;;;;;;;101;XRF;;;16;XRF;;;;;;18;XRF;;;596;XRF;;;27;XRF;;;199;XRF;;;52;XRF;;;;;;;;;;;;221;XRF;;;54;XRF;;;82;XRF;;;4;XRF;;;;;;;;;;;;;;;;;;;;;;;;;;;;;;;;;;;;;;;;;;;;;;;;;;0;XRF;;;;0;XRF;;;;;;;;;;;;;;;;;;;;;;;;;;;;;;;;;;;;;;;;;;;;;;;;;;;;;;;;;;;;;;;;;;;;;;;;;;;;;;;;;;;;;;;;;;;;;;;;;;;;;;;
2009;[14094] LONGPRE M.-A. (2009);samp. TN15;;CANARY ISLANDS / TENERIFE / EL PALMAR FORMATION;TENO MASSIF;28.3074;-16.8386;28.3074;-16.8386;730;730;OUTCROP;;;SUBAERIAL;VOLCANIC ROCK;ANKARAMITE;;;;;NEOGENE;;;;;WHOLE ROCK;;;;;;;;;;;;;;43.23;2.76;10.09;;;;;;13.4;;10.04;16.18;0.17;;;;;;0.86;XRF;;;1.73;XRF;;;0.42;;;;;;;;;;0.78;;;;;;;;;;;;;;;;;;;;;;;;;;;;;;;;;;;;;;;;;;;;;;275;XRF;;;1043;XRF;;;;;79;XRF;;;;;495;XRF;;;;;;;;;106;XRF;;;14;XRF;;;;;;21;XRF;;;596;XRF;;;20;XRF;;;187;XRF;;;53;XRF;;;;;;;;;;;;251;XRF;;;43;XRF;;;51;XRF;;;0;XRF;;;;;;;;;;;;;;;;;;;;;;;;;;;;;;;;;;;;;;;;;;;;;;;;;;0;XRF;;;;0;XRF;;;;;;;;;;;;;;;;;;;;;;;;;;;;;;;;;;;;;;;;;;;;;;;;;;;;;;;;;;;;;;;;;;;;;;;;;;;;;;;;;;;;;;;;;;;;;;;;;;;;;;;
2009;[14094] LONGPRE M.-A. (2009);samp. TN16;;CANARY ISLANDS / TENERIFE / LOS GIGANTES FORMATION;TENO MASSIF;28.2509;-16.8387;28.2509;-16.8387;4;4;OUTCROP;;;SUBAERIAL;VOLCANIC ROCK;ANKARAMITE;;;;;NEOGENE;;;;;WHOLE ROCK;;;;;;;;;;;;;;43.44;3.18;12.51;;;;;;12.06;;10.31;11.84;0.17;;;;;;0.99;XRF;;;1.96;XRF;;;0.48;;;;;;;;;;2.73;;;;;;;;;;;;;;;;;;;;;;;;;;;;;;;;;;;;;;;;;;;;;;300;XRF;;;657;XRF;;;;;60;XRF;;;;;233;XRF;;;;;;;;;101;XRF;;;18;XRF;;;;;;19;XRF;;;622;XRF;;;27;XRF;;;234;XRF;;;53;XRF;;;;;;;;;;;;231;XRF;;;34;XRF;34.9;ICPMS;86;XRF;74;ICPMS;13;XRF;8.97;ICPMS;34.3;ICPMS;;;6.9;ICPMS;;;2.26;ICPMS;;;6.27;0.94;ICPMS;;;4.58;0.82;2.04;0.29;1.63;ICPMS;;;0.23;;;;;;;;;;;;;;;;;;;;;;0;XRF;;;;0;XRF;;;;;;;;;;;;;;;;;;;;;;;;;;;;;;;;;;;;;;;;;;;;;;;;;;;;;;;;;;;;;;;;;;;;;;;;;;;;;;;;;;;;;;;;;;;;;;;;;;;;;;;
2009;[14094] LONGPRE M.-A. (2009);samp. TN31;;CANARY ISLANDS / TENERIFE / CARRIZALES FORMATION;TENO MASSIF;28.3131;-16.8462;28.3131;-16.8462;785;785;OUTCROP;;;SUBAERIAL;VOLCANIC ROCK;ANKARAMITE;;;;;NEOGENE;;;;;WHOLE ROCK;;;;;;;;;;;;;;42.94;2.49;9.39;;;;;;12.98;;10.05;16.52;0.2;;;;;;0.73;XRF;;;1.49;XRF;;;0.34;;;;;;;;;;1.29;;;;;;;;;;;;;;;;;;;;;;;;;;;;;;;;;;;;;;;;;;;;;;276;XRF;;;1113;XRF;;;;;75;XRF;;;;;471;XRF;;;;;;;;;92;XRF;;;13;XRF;;;;;;16;XRF;;;418;XRF;;;20;XRF;;;177;XRF;;;35;XRF;;;;;;;;;;;;191;XRF;;;0;XRF;;;40;XRF;;;0;XRF;;;;;;;;;;;;;;;;;;;;;;;;;;;;;;;;;;;;;;;;;;;;;;;;;;6;XRF;;;;0;XRF;;;;;;;;;;;;;;;;;;;;;;;;;;;;;;;;;;;;;;;;;;;;;;;;;;;;;;;;;;;;;;;;;;;;;;;;;;;;;;;;;;;;;;;;;;;;;;;;;;;;;;;
2009;[14094] LONGPRE M.-A. (2009);samp. TN32;;CANARY ISLANDS / TENERIFE / CARRIZALES FORMATION;TENO MASSIF;28.3131;-16.8462;28.3131;-16.8462;785;785;OUTCROP;;;SUBAERIAL;VOLCANIC ROCK;ANKARAMITE;;;;;NEOGENE;;;;;WHOLE ROCK;;;;;;;;;;;;;;43.31;2.56;9.68;;;;;;12.88;;10.28;16.23;0.2;;;;;;0.72;XRF;;;1.58;XRF;;;0.36;;;;;;;;;;1.22;;;;;;;;;;;;;;;;;;;;;;;;;;;;;;;;;;;;;;;;;;;;;;279;XRF;;;1063;XRF;;;;;71;XRF;;;;;456;XRF;;;;;;;;;96;XRF;;;16;XRF;;;;;;14;XRF;;;428;XRF;;;21;XRF;;;173;XRF;;;35;XRF;;;;;;;;;;;;225;XRF;;;0;XRF;25.3;ICPMS;38;XRF;54.1;ICPMS;0;XRF;6.92;ICPMS;27.3;ICPMS;;;5.94;ICPMS;;;1.9;ICPMS;;;5.44;0.81;ICPMS;;;4.11;0.73;1.84;0.26;1.41;ICPMS;;;0.2;;;;;;;;;;;;;;;;;;;;;;6;XRF;;;;0;XRF;;;;;;;;;;;;;;;;;;;;;;;;;;;;;;;;;;;;;;;;;;;;;;;;;;;;;;;;;;;;;;;;;;;;;;;;;;;;;;;;;;;;;;;;;;;;;;;;;;;;;;;
2009;[14094] LONGPRE M.-A. (2009);samp. TN33;;CANARY ISLANDS / TENERIFE / CARRIZALES FORMATION;TENO MASSIF;28.3162;-16.8525;28.3162;-16.8525;745;745;OUTCROP;;;SUBAERIAL;VOLCANIC ROCK;ANKARAMITE;;;;;NEOGENE;;;;;WHOLE ROCK;;;;;;;;;;;;;;43.51;3.31;13.45;;;;;;12.91;;10.22;8.95;0.18;;;;;;1.24;XRF;;;2.49;XRF;;;0.58;;;;;;;;;;1.67;;;;;;;;;;;;;;;;;;;;;;;;;;;;;;;;;;;;;;;;;;;;;;296;XRF;;;355;XRF;;;;;56;XRF;;;;;194;XRF;;;;;;;;;106;XRF;;;20;XRF;;;;;;28;XRF;;;633;XRF;;;29;XRF;;;274;XRF;;;60;XRF;;;;;;;;;;;;322;XRF;;;0;XRF;;;69;XRF;;;7;XRF;;;;;;;;;;;;;;;;;;;;;;;;;;;;;;;;;;;;;;;;;;;;;;;;;;0;XRF;;;;0;XRF;;;;;;;;;;;;;;;;;;;;;;;;;;;;;;;;;;;;;;;;;;;;;;;;;;;;;;;;;;;;;;;;;;;;;;;;;;;;;;;;;;;;;;;;;;;;;;;;;;;;;;;
2009;[14094] LONGPRE M.-A. (2009);samp. TN34;;CANARY ISLANDS / TENERIFE / CARRIZALES FORMATION;TENO MASSIF;28.3162;-16.8525;28.3162;-16.8525;745;745;OUTCROP;;;SUBAERIAL;VOLCANIC ROCK;ANKARAMITE;;;;;NEOGENE;;;;;WHOLE ROCK;;;;;;;;;;;;;;43.07;2.59;9.67;;;;;;12.81;;10.38;15.87;0.19;;;;;;0.67;XRF;;;1.42;XRF;;;0.35;;;;;;;;;;1.66;;;;;;;;;;;;;;;;;;;;;;;;;;;;;;;;;;;;;;;;;;;;;;284;XRF;;;1087;XRF;;;;;74;XRF;;;;;456;XRF;;;;;;;;;92;XRF;;;16;XRF;;;;;;16;XRF;;;415;XRF;;;20;XRF;;;170;XRF;;;33;XRF;;;;;;;;;;;;202;XRF;;;0;XRF;;;46;XRF;;;0;XRF;;;;;;;;;;;;;;;;;;;;;;;;;;;;;;;;;;;;;;;;;;;;;;;;;;0;XRF;;;;0;XRF;;;;;;;;;;;;;;;;;;;;;;;;;;;;;;;;;;;;;;;;;;;;;;;;;;;;;;;;;;;;;;;;;;;;;;;;;;;;;;;;;;;;;;;;;;;;;;;;;;;;;;;
2009;[14094] LONGPRE M.-A. (2009);samp. TN35;;CANARY ISLANDS / TENERIFE / CARRIZALES FORMATION;TENO MASSIF;28.3162;-16.8525;28.3162;-16.8525;745;745;OUTCROP;;;SUBAERIAL;VOLCANIC ROCK;ANKARAMITE;;;;;NEOGENE;;;;;WHOLE ROCK;;;;;;;;;;;;;;43.47;3.11;12.74;;;;;;12.65;;10.58;10.8;0.18;;;;;;1.02;XRF;;;2.12;XRF;;;0.5;;;;;;;;;;1.9;;;;;;;;;;;;;;;;;;;;;;;;;;;;;;;;;;;;;;;;;;;;;;309;XRF;;;536;XRF;;;;;55;XRF;;;;;255;XRF;;;;;;;;;101;XRF;;;21;XRF;;;;;;21;XRF;;;581;XRF;;;26;XRF;;;231;XRF;;;49;XRF;;;;;;;;;;;;228;XRF;;;0;XRF;;;58;XRF;;;8;XRF;;;;;;;;;;;;;;;;;;;;;;;;;;;;;;;;;;;;;;;;;;;;;;;;;;9;XRF;;;;0;XRF;;;;;;;;;;;;;;;;;;;;;;;;;;;;;;;;;;;;;;;;;;;;;;;;;;;;;;;;;;;;;;;;;;;;;;;;;;;;;;;;;;;;;;;;;;;;;;;;;;;;;;;
2007;[14273] COMIN-CHIARAMONTI P. (2007);samp. 01A;;CIRCUM-PARANA ALKALINE VOLCANIC PROVINCES / PARAGUAY_MESOZOIC / MISIONES IGNEOUS PROVINCE;;-27;-56.8;-27;-56.8;;;OUTCROP;;;SUBAERIAL;VOLCANIC ROCK;ANKARAMITE;;;;;MESOZOIC;;;;;WHOLE ROCK;;;;;;;;;;;;;;40.47;3.44;12.51;;;;;;11.64;;11.27;10.06;0.19;;;;;;1.82;NOT;;;4.03;NOT;;;0.71;;;;;;;;;;1.82;;;;;;;;;;;;;;;;;;;;;;;;;;;;;;;;;;;;;;;;;;;;;;;;;;301;NOT;;;;;;;;;;;126;NOT;;;;;;;;;;;;;;;;;;;;77.4;NOT;;;1001;NOT;;;23;NOT;;;267;NOT;;;72;NOT;;;;;;;;;;;;953;NOT;;;63.21;NOT;;;117.98;NOT;;;;;;;57.84;NOT;;;10.62;NOT;;;3.04;NOT;;;5.87;1;NOT;;;5.7;;2.99;;1.87;NOT;;;0.27;6.1;NOT;;;4.1;;;;;;;;;;;;;;;;;;;;;;5.8;NOT;;;;1;NOT;;;;;;0.512411;;;0.704157;;18.197;NOT;;;;;15.682;NOT;;;;37.936;NOT;;;;;;;;;;;;;;;;;;;;;;;;;;;;;;;;;;;;;;;;;;;;;;;;;;;;;;;;;;;;;;;;;;;;;;;;;;;
1974;[14304] GOUHIER J. (1974);samp. III(IV),6,3^(4)5;;MID-AFRICAN RIFT SYSTEM / CAMEROON LINE (CONTINENTAL SECTION) / ADAMAWA (ADAMAOUA) PLATEAU;GOUNJEL, N^GANHA MASSIF;7.37;13.98;7.37;13.98;;;OUTCROP;;;SUBAERIAL;VOLCANIC ROCK;ANKARAMITE;;BASANITIC;;;;;;;;WHOLE ROCK;;;;;;;;;;;;;;40.33;3.58;13.11;;;;16.19;5.15;;9.4;11.42;11.42;0.22;;;;;;0.48;NOT;;;2.89;NOT;;;;;;;;;;;;;0.67;;;;;;;;;;;;;;;;;;;;;;;;;;;;;;;;;;;;;;;;;;;;;;328;NOT;;;290;NOT;;;;;65;NOT;;;;;164;NOT;;;;;55;NOT;;;;;;;;;;;;;;;;;;621;NOT;;;;;;;;;;;;;;;;;;;;;;;;477;NOT;;;;;;;;;;;;;;;;;;;;;;;;;;;;;;;;;;;;;;;;;;;;;;;;;;;;;;;;;;;;;;;;;;;;;;;;;;;;;;;;;;;;;;;;;;;;;;;;;;;;;;;;;;;;;;;;;;;;;;;;;;;;;;;;;;;;;;;;;;;;;;;;;;;;;;;;;;;;;;;;;;;;;;;;;;;
1974;[14304] GOUHIER J. (1974);samp. III(IV),6(7),3^,(4)5;;MID-AFRICAN RIFT SYSTEM / CAMEROON LINE (CONTINENTAL SECTION) / ADAMAWA (ADAMAOUA) PLATEAU;GOUNJEL, N^GANHA MASSIF;7.37;13.98;7.37;13.98;;;OUTCROP;;;SUBAERIAL;VOLCANIC ROCK;ANKARAMITE;;BASANITIC;;;;;;;;WHOLE ROCK;;;;;;;;;;;;;;38.05;3.05;12.12;;;;14.58;3.38;;10.09;11.17;10.88;0.2;;;;;;0.53;NOT;;;2.78;NOT;;;;;;;;;;;;;5.35;;;;;;;;;;;;;;;;;;;;;;;;;;;;;;;;;;;;;;;;;;;;;;331;NOT;;;282;NOT;;;;;66;NOT;;;;;151;NOT;;;;;52;NOT;;;;;;;;;;;;;;;;;;596;NOT;;;;;;;;;;;;;;;;;;;;;;;;440;NOT;;;;;;;;;;;;;;;;;;;;;;;;;;;;;;;;;;;;;;;;;;;;;;;;;;;;;;;;;;;;;;;;;;;;;;;;;;;;;;;;;;;;;;;;;;;;;;;;;;;;;;;;;;;;;;;;;;;;;;;;;;;;;;;;;;;;;;;;;;;;;;;;;;;;;;;;;;;;;;;;;;;;;;;;;;;
2010;[14544] ROGERS N. W.(2010)  [GeoReM [5149] ];samp. 01.03.24.08;;ETHIOPIAN PLATEAU / NORTHERN ETHIOPIAN PLATEAU / DILB SECTION;;11.945;39.3973;11.945;39.3973;3527;3527;OUTCROP;;;SUBAERIAL;VOLCANIC ROCK;ANKARAMITE;;;30000000;30000000;OLIGOCENE;;;;;WHOLE ROCK;;;;;;;;;;;;;;;3.35;8.3;;;;13.5;;;;10.02;14.73;;;;;;;;;;;;;;;;;;;;;;;;;;;;;;;;0.183;;;;;;;;;;;;;;;;;;;;;;;;;;;;;;;;;;;;;;;;;;;;;;;;;;;;;;;653;ICPMS;;;;;;;;;;;;;;;;;;;;;;;;;;;;;;;;;;;;;;;;;;;;;;;;;;;;;24.3;ICPMS;;;;;;;;;;;;;;;;;;;;;;;;;;;;5.82;;;;1.94;ICPMS;;;;;;;;;;;;;;225.8;;;;;1160;;;;;;;;;;;;;;;;;;;;;;;;;;;;;;;;;;;;;;;;;;;;;0.12669;TIMS_N;;;0.938;TIMS_N;;;;;;;;;;;;;;;;;;;;;;;;;;;;;;;;;;;;;;;;;;;;;;;;;;;;;;;;;;;;;;;;;
2010;[14544] ROGERS N. W.(2010)  [GeoReM [5149] ];samp. 01.03.24.14;;ETHIOPIAN PLATEAU / NORTHERN ETHIOPIAN PLATEAU / DILB SECTION;;11.9482;39.4001;11.9482;39.4001;3485;3485;OUTCROP;;;SUBAERIAL;VOLCANIC ROCK;ANKARAMITE;;;30000000;30000000;OLIGOCENE;;;;;WHOLE ROCK;;;;;;;;;;;;;;;3.069;7.22;;;;13.46;;;;9.4;17.56;;;;;;;;;;;;;;;;;;;;;;;;;;;;;;;;0.178;;;;;;;;;;;;;;;;;;;;;;;;;;;;;;;;;;;;;;;;;;;;;;;;;;;;;;;673;ICPMS;;;;;;;;;;;;;;;;;;;;;;;;;;;;;;;;;;;;;;;;;;;;;;;;;;;;;23.3;ICPMS;;;;;;;;;;;;;;;;;;;;;;;;;;;;5.22;;;;1.67;ICPMS;;;;;;;;;;;;;;146.8;;;;;1391;;;;;;;;;;;;;;;;;;;;;;;;;;;;;;;;;;;;;;;;;;;;;0.1266;TIMS_N;;;0.509;TIMS_N;;;;;;;;;;;;;;;;;;;;;;;;;;;;;;;;;;;;;;;;;;;;;;;;;;;;;;;;;;;;;;;;;
2010;[14544] ROGERS N. W.(2010)  [GeoReM [5149] ];samp. 01.03.24.22;;ETHIOPIAN PLATEAU / NORTHERN ETHIOPIAN PLATEAU / DILB SECTION;;11.9515;39.4044;11.9515;39.4044;3426;3426;OUTCROP;;;SUBAERIAL;VOLCANIC ROCK;ANKARAMITE;FINE-GRAINED;;30000000;30000000;OLIGOCENE;;;;;WHOLE ROCK;;;;;;;;;;;;;;;3.069;7.22;;;;14.19;;;;9.53;17.56;;;;;;;;;;;;;;;;;;;;;;;;;;;;;;;;0.188;;;;;;;;;;;;;;;;;;;;;;;;;;;;;;;;;;;;;;;;;;;;;;;;;;;;;;;856;ICPMS;;;;;;;;;;;;;;;;;;;;;;;;;;;;;;;;;;;;;;;;;;;;;;;;;;;;;23.3;ICPMS;;;;;;;;;;;;;;;;;;;;;;;;;;;;5.22;;;;1.67;ICPMS;;;;;;;;;;;;;;102.6;;;;;2764;;;;;;;;;;;;;;;;;;;;;;;;;;;;;;;;;;;;;;;;;;;;;0.12608;TIMS_N;;;0.179;TIMS_N;;;;;;;;;;;;;;;;;;;;;;;;;;;;;;;;;;;;;;;;;;;;;;;;;;;;;;;;;;;;;;;;;