Year;CITATION;SAMPLE NAME;UNIQUE_ID;LOCATION;LOCATION COMMENT;LATITUDE (MIN.);LONGITUDE (MIN.);LATITUDE (MAX.);LONGITUDE (MAX.);ELEVATION (MIN.);ELEVATION (MAX.);SAMPLING TECHNIQUE;DRILLING DEPTH (MIN.);DRILLING DEPTH (MAX.);LAND/SEA (SAMPLING);ROCK TYPE;ROCK NAME;ROCK TEXTURE;SAMPLE COMMENT;AGE (MIN.);AGE (MAX.);GEOLOGICAL AGE;GEOLOGICAL AGE PREFIX;ERUPTION YEAR;ALTERATION;ALTERATION TYPE;TYPE OF MATERIAL;MINERAL / COMPONENT;SPOT (MINERAL);CRYSTAL;RIM / CORE (MINERAL GRAINS);GRAIN SIZE;PRIMARY/SECONDARY;INCLUSION TYPE;SPOT (INCLUSION);MINERAL (INCLUSION);RIM / CORE (INCLUSION);HOSTMINERAL (INCLUSION);HEATING;HEATING TEMPERATURE (?C);SIO2(WT%);TIO2(WT%);AL2O3(WT%);CR2O3(WT%);V2O3(WT%);V2O5(WT%);FE2O3T(WT%);FE2O3(WT%);FEOT(WT%);FEO(WT%);CAO(WT%);MGO(WT%);MNO(WT%);BAO(WT%);SRO(WT%);NIO(WT%);ZNO(WT%);COO(WT%);K2O(WT%);;;;NA2O(WT%);;;;P2O5(WT%);H2O(WT%);H2OP(WT%);H2OM(WT%);CO2(WT%);F(WT%);CL(WT%);CL2(WT%);SO3(WT%);S(WT%);LOI(WT%);O(WT%);SI(WT%);AL(WT%);TI(WT%);FE(WT%);MG(WT%);MN(WT%);CA(WT%);K(WT%): altern. values or methods;;;;NA(WT%);CR(WT%);NI(WT%);HE(CCMSTP/G);HE3(CCMSTP/G);HE4(CCMSTP/G): altern. values or methods;;;;LI(PPM);BE(PPM);B(PPM);F(PPM);NE20(CCMSTP/G);NE22(CCMSTP/G);P(PPM);S(PPM);CL(PPM);AR36(CCMSTP/G);AR40(CCMSTP/G);AR40(MOL/G): altern. values or methods;;;;AR40(PPB);K(PPM);SC(PPM): altern. values or methods;;;;;;TI(PPM);V(PPM): altern. values or methods;;;;CR(PPM): altern. values or methods;;;;MN(PPM);FE(PPM);CO(PPM): altern. values or methods;;;;;;NI(PPM): altern. values or methods;;;;;;CU(PPM): altern. values or methods;;;;ZN(PPM): altern. values or methods;;;;GA(PPM): altern. values or methods;;;;GE(PPM);AS(PPM);KR84(CCMSTP/G);RB(PPM): altern. values or methods;;;;SR(PPM): altern. values or methods;;;;Y(PPM): altern. values or methods;;;;ZR(PPM): altern. values or methods;;;;NB(PPM): altern. values or methods;;;;MO(PPM);RU(PPB);RH(PPB);PD(PPB);IN(PPM);SN(PPM);SB(PPM);XE132(CCMSTP/G);CS(PPM);BA(PPM): altern. values or methods;;;;LA(PPM): altern. values or methods;;;;CE(PPM): altern. values or methods;;;;PR(PPM): altern. values or methods;;;;ND(PPM): altern. values or methods;;;;SM(PPM): altern. values or methods;;;;EU(PPM): altern. values or methods;;;;GD(PPM);TB(PPM): altern. values or methods;;;;DY(PPM);HO(PPM);ER(PPM);TM(PPM);YB(PPM): altern. values or methods;;;;LU(PPM);HF(PPM): altern. values or methods;;;;TA(PPM);W(PPM);RE(PPB): altern. values or methods;;;;RE(PPT);OS(PPB): altern. values or methods;;;;OS(PPT);IR(PPB);PT(PPB);AU(PPB);HG(PPB);TL(PPM);PB(PPM): altern. values or methods;;;;PB210_ACT(DPM/G);TH(PPM): altern. values or methods;;;;TH(PPB);U(PPM): altern. values or methods;;;;U(PPB);CO2(PPM);H2O(PPM);ND143_ND144;ND148_ND144;SM147_ND144;SR87_SR86;RB87_SR86;PB206_PB204: altern. values or methods;;;;PB206_PB207;PB206_PB208;PB207_PB204: altern. values or methods;;;;PB207_PB206;PB208_PB204: altern. values or methods;;;;PB208_PB206;OS187_OS186;OS187_OS188: altern. values or methods;;;;RE187_OS188: altern. values or methods;;;;HF176_HF177;HE3_HE4;HE3_HE4(R/R(A)): altern. values or methods;;;;HE4_HE3: altern. values or methods;;;;;;HE4_HE3(R/R(A)): altern. values or methods;;;;AR38_AR36;AR40_AR36;NE20_NE22;NE21_NE22;XE129_XE132;PB206_U238;PB207_U235;PB210_U238;TH232_U238;U238_PB204;D13C(VS SMOW);D17O(VS VSMOW);D18O(PER MIL);D18O(VS PDB);D18O(VS SMOW);D18O(VS VSMOW);D34S(VS CDT);D44_40CA(VS SRM915A);D56FE(VS IRMM-014);DD(VS SMOW);ALBITE(MOL%);ACMITE(MOL%);ANORTHITE(MOL%);ENSTATITE(MOL%);FAYALITE(MOL%);FORSTERITE(MOL%);FERROSILITE(MOL%);HEMATITE(MOL%);LARNITE(MOL%);ORTHOCLASE(MOL%);PSEUDOBROOKITE(MOL%);TEPHROITE(MOL%);ULVOSPINEL(MOL%);WOLLASTONITE(MOL%);AGE(KA);AGE(MA): altern. values or methods;;;;;;;;AGE_PB207_PB206(MA);AGE_PB207_U235(MA);AGE_PB206_U238(MA);
1988;[10135] SMEDLEY P. L. (1988);samp. L3;393461;EUROPEAN OROGENIC BELT - PALEOZOIC / GREAT BRITAIN / SCOTLAND;ST. BALDRED^S CRADLE, EAST LOTHIAN;56;-2.6;56;-2.6;;;OUTCROP;;;SUBAERIAL;VOLCANIC ROCK;ANKARAMITE;;PLUG;320000000;360000000;CARBONIFEROUS;;;;;WHOLE ROCK;;;;;;;;;;;;;;45.06;3.35;14.29;;;;13.64;;;;9.81;7.53;0.18;;;;;;1.83;XRF;;;2.49;XRF;;;0.46;;;;;;;;;;;;;;;;;;;;;;;;;;;;;;;;;;;;;;;;;;;;;;;;;24;XRF;;;;;;268;XRF;;;219;XRF;;;;;;;;;;;128;XRF;;;;;46;XRF;;;98;XRF;;;;;;;;;;32;XRF;;;899;XRF;;;22;XRF;;;187;XRF;;;51;XRF;;;;;;;;;;;;756;XRF;;;39;XRF;;;82;XRF;;;;;;;37;XRF;;;;;;;;;;;;;;;;;;;;;;;;;;;;;;;;;;;;;;;;;;;;;;3;XRF;;;;;;;;;;;;;;;;;;;;;;;;;;;;;;;;;;;;;;;;;;;;;;;;;;;;;;;;;;;;;;;;;;;;;;;;;;;;;;;;;;;;;;;;;;;;;;;;;;;;;;;;;;;;
1988;[10135] SMEDLEY P. L. (1988);samp. KT160;;EUROPEAN OROGENIC BELT - PALEOZOIC / GREAT BRITAIN / SCOTLAND;MACHRIHANISH SHORE, KINTYRE;55.58;-5.58;55.58;-5.58;;;OUTCROP;;;SUBAERIAL;VOLCANIC ROCK;ANKARAMITE;;;320000000;360000000;CARBONIFEROUS;;;;;WHOLE ROCK;;;;;;;;;;;;;;44.71;2.63;13.73;;;;14.59;;;;10.33;8.15;0.18;;;;;;0.89;XRF;;;2.19;XRF;;;0.37;;;;;;;;;;;;;;;;;;;;;;;;;;;;;;;;;;;;;;;;;;;;;;;;;30;XRF;;;;;;338;XRF;;;302;XRF;;;;;;;;;;;143;XRF;;;;;32;XRF;;;100;XRF;;;;;;;;;;23;XRF;;;483;XRF;;;27;XRF;;;207;XRF;;;32;XRF;;;;;;;;;;;;331;XRF;;;26;XRF;;;61;XRF;;;;;;;27;XRF;;;;;;;;;;;;;;;;;;;;;;;;;;;;;;;;;;;;;;;;;;;;;;0;XRF;;;;;;;;;;;;;;;;;;;;;;;;;;;;;;;;;;;;;;;;;;;;;;;;;;;;;;;;;;;;;;;;;;;;;;;;;;;;;;;;;;;;;;;;;;;;;;;;;;;;;;;;;;;;
1988;[10135] SMEDLEY P. L. (1988);samp. KT171;;EUROPEAN OROGENIC BELT - PALEOZOIC / GREAT BRITAIN / SCOTLAND;KINTYRE;55.58;-5.58;55.58;-5.58;;;OUTCROP;;;SUBAERIAL;VOLCANIC ROCK;ANKARAMITE;;;320000000;360000000;CARBONIFEROUS;;;;;WHOLE ROCK;;;;;;;;;;;;;;;;;;;;;;;;;;;;;;;;;;;;;;;;;;;;;;;;;;;;;;;;;;;;;;;;;;;;;;;;;;;;;;;;;;;;;;;;;;;;;;;;;;;;;;;;;;;;;;;;;;;;;;;;;;;;;;;;;;;;;17.4;TIMS_ID;;;324.3;TIMS_ID;;;;;;;;;;;;;;;;;;;;;;;;;;;;;;;;;;;;;;;;;;;;;;;;;;;;;;;;;;;;;;;;;;;;;;;;;;;;;;;;;;;;;;;;;;;;;;;;;;;;;;;;;;;0.70419;0.1553;;;;;;;;;;;;;;;;;;;;;;;;;;;;;;;;;;;;;;;;;;;;;;;;;;;;;;;;;;;;;;;;;;;;;;;;;;;;;;;;;;;;;;;;
1990;[10315] LE MASURIER W. E. (1990);samp. R.9251;;CROZET ISLANDS / ILE DE LA POSSESSION;;-46.4;51.7;-46.4;51.7;;;OUTCROP;;;SUBAERIAL;VOLCANIC ROCK;ANKARAMITE;;FLOW;700000;700000;NEOGENE;;;;;WHOLE ROCK;;;;;;;;;;;;;;45.9;2.5;13;;;;;4.41;;6.66;12.2;11.5;2.5;;;;;;0.18;NOT;;;2;NOT;;;;;0.37;0.1;;;;;;;;;;;;;;;;;;;;;;;;;;;;;;;;;;;;;;;;;;;;;;;;;;;;;;;;;;;;;;;;;;;;;;;;;;;;;;;;;;;;;;;;;;;;;;;;;;;;;;;;;;;;;;;;;;;;;;;;;;;;;;;;;;;;;;;;;;;;;;;;;;;;;;;;;;;;;;;;;;;;;;;;;;;;;;;;;;;;;;;;;;;;;;;;;;;;;;;;;;;;;;;;;;;;;;;;;;;;;;;;;;;;;;;;;;;;;;;;;;;;;;;;;;;;;;;;;;;;;;;;;;;;;;;;;;;;;;;;;;;;;;;;;;;
1990;[10315] LE MASURIER W. E. (1990);samp. 81/10;;NEW ZEALAND / SOUTH ISLAND / ANTIPODES ISLANDS;EAST SIDE OF ANCHORAGE BAY, ANTIPODE ISLAND;-49.68;178.77;-49.68;178.77;;;OUTCROP;;;SUBAERIAL;VOLCANIC ROCK;ANKARAMITE;;LAVA FLOW;0;1000000;QUATERNARY;;;;;WHOLE ROCK;;;;;;;;;;;;;;42.39;2.95;8.47;;;;;2.46;;12.3;12.41;15.35;0.17;;;;;;0.25;XRF;;;1.49;XRF;;;0.31;;;;;;;;;;1.2;;;;;;;;;;;;;;;;;;;;;;;;;;;;;;;;;;;;;;;36;XRF;;;;;;319;XRF;;;659;XRF;;;;;;;;;;;283;XRF;;;;;51;XRF;;;115;XRF;;;12;XRF;;;;;;4;XRF;;;335;XRF;;;21;XRF;;;136;XRF;;;23;XRF;;;;;;;;;;;;110;XRF;;;16;XRF;;;39;XRF;;;;;;;;;;;;;;;;;;;;;;;;;;;;;;;;;;;;;;;;;;;;;;;;;;;;;;1;XRF;;;;3;XRF;;;;;;;;;;;;;;;;;;;;;;;;;;;;;;;;;;;;;;;;;;;;;;;;;;;;;;;;;;;;;;;;;;;;;;;;;;;;;;;;;;;;;;;;;;;;;;;;;;;;;;;
1986;[10886] SMEDLEY P. L. (1986);samp. L3;393461;EUROPEAN OROGENIC BELT - PALEOZOIC / GREAT BRITAIN / SCOTLAND;ST. BALDRED^S CRADLE, EAST LOTHIAN;56;-2.6;56;-2.6;;;OUTCROP;;;SUBAERIAL;VOLCANIC ROCK;ANKARAMITE;;;354000000;354000000;CARBONIFEROUS;;;;;WHOLE ROCK;;;;;;;;;;;;;;;;;;;;;;;;;;;;;;;;;;;;;;;;;;;;;;;;;;;;;;;;;;;;;;;;;;;;;;;;;;;;;;;;;;;;;;;;;;;;;;;;;;;;;;;;;;;;;;;;;;;;;;;;;;;;;;;;;;;;;31.1;TIMS_ID;;;880.9;TIMS_ID;;;;;;;;;;;;;;;;;;;;;;;;;;;;;;;;;;;;;;;;37.8;TIMS_ID;;;7.45;TIMS_ID;;;;;;;;;;;;;;;;;;;;;;;;;;;;;;;;;;;;;;;;;;5.5;TIMS_ID;;;;;;;;;1;TIMS_ID;;;;;;0.512601;;0.1191;0.70387;0.1041;18.939;TIMS;;;;;15.629;TIMS;;;;39.108;TIMS;;;;;;;;;;;;;;;;;;;;;;;;;;;;;;;;;;;;;;;;;;;;;;;;;;;;;;;;;;;;;;;;;;;;;;;;;;;
1986;[10886] SMEDLEY P. L. (1986);samp. L19;;EUROPEAN OROGENIC BELT - PALEOZOIC / GREAT BRITAIN / SCOTLAND;EAST LOTHIAN;56;-2.6;56;-2.6;;;OUTCROP;;;SUBAERIAL;VOLCANIC ROCK;ANKARAMITE;;;354000000;354000000;CARBONIFEROUS;;;;;WHOLE ROCK;;;;;;;;;;;;;;;;;;;;;;;;;;;;;;;;;;;;;;;;;;;;;;;;;;;;;;;;;;;;;;;;;;;;;;;;;;;;;;;;;;;;;;;;;;;;;;;;;;;;;;;;;;;;;;;;;;;;;;;;;;;;;;;;;;;;;5.1;TIMS_ID;;;814.9;TIMS_ID;;;;;;;;;;;;;;;;;;;;;;;;;;;;;;;;;;;;;;;;43.7;TIMS_ID;;;7.99;TIMS_ID;;;;;;;;;;;;;;;;;;;;;;;;;;;;;;;;;;;;;;;;;;2.9;TIMS_ID;;;;;;;;;1;TIMS_ID;;;;;;0.512601;;0.1105;0.70319;0.01791;19.584;TIMS;;;;;15.641;TIMS;;;;39.645;TIMS;;;;;;;;;;;;;;;;;;;;;;;;;;;;;;;;;;;;;;;;;;;;;;;;;;;;;;;;;;;;;;;;;;;;;;;;;;;
1986;[10886] SMEDLEY P. L. (1986);samp. KT147;;EUROPEAN OROGENIC BELT - PALEOZOIC / GREAT BRITAIN / SCOTLAND;KINTYRE;55.58;-5.58;55.58;-5.58;;;OUTCROP;;;SUBAERIAL;VOLCANIC ROCK;ANKARAMITE;;;320000000;320000000;CARBONIFEROUS;;;;;WHOLE ROCK;;;;;;;;;;;;;;;;;;;;;;;;;;;;;;;;;;;;;;;;;;;;;;;;;;;;;;;;;;;;;;;;;;;;;;;;;;;;;;;;;;;;;;;;;;;;;;;;;;;;;;;;;;;;;;;;;;;;;;;;;;;;;;;;;;;;;4.7;TIMS_ID;;;418.4;TIMS_ID;;;;;;;;;;;;;;;;;;;;;;;;;;;;;;;;;;;;;;;;24.7;TIMS_ID;;;5.4;TIMS_ID;;;;;;;;;;;;;;;;;;;;;;;;;;;;;;;;;;;;;;;;;;2;TIMS_ID;;;;;;;;;0.8;TIMS_ID;;;;;;0.512676;;0.1321;0.70386;0.03268;19.545;TIMS;;;;;15.571;TIMS;;;;39.566;TIMS;;;;;;;;;;;;;;;;;;;;;;;;;;;;;;;;;;;;;;;;;;;;;;;;;;;;;;;;;;;;;;;;;;;;;;;;;;;
1986;[10886] SMEDLEY P. L. (1986);samp. A6;393460;EUROPEAN OROGENIC BELT - PALEOZOIC / GREAT BRITAIN / IRELAND;CORRIE, ARRAN;54.17;-8.06;54.17;-8.06;;;OUTCROP;;;SUBAERIAL;VOLCANIC ROCK;ANKARAMITE;;;330000000;330000000;CARBONIFEROUS;;;;;WHOLE ROCK;;;;;;;;;;;;;;;;;;;;;;;;;;;;;;;;;;;;;;;;;;;;;;;;;;;;;;;;;;;;;;;;;;;;;;;;;;;;;;;;;;;;;;;;;;;;;;;;;;;;;;;;;;;;;;;;;;;;;;;;;;;;;;;;;;;;;29.7;TIMS_ID;;;517.2;TIMS_ID;;;;;;;;;;;;;;;;;;;;;;;;;;;;;;;;;;;;;;;;29.7;TIMS_ID;;;6;TIMS_ID;;;;;;;;;;;;;;;;;;;;;;;;;;;;;;;;;;;;;;;;;;3.3;TIMS_ID;;;;;;;;;1;TIMS_ID;;;;;;0.512617;;0.1221;0.70434;0.1661;19.169;TIMS;;;;;15.545;TIMS;;;;39.233;TIMS;;;;;;;;;;;;;;;;;;;;;;;;;;;;;;;;;;;;;;;;;;;;;;;;;;;;;;;;;;;;;;;;;;;;;;;;;;;
1986;[10886] SMEDLEY P. L. (1986);samp. A7;;EUROPEAN OROGENIC BELT - PALEOZOIC / GREAT BRITAIN / IRELAND;ARRAN;54.17;-8.06;54.17;-8.06;;;OUTCROP;;;SUBAERIAL;VOLCANIC ROCK;ANKARAMITE;;;330000000;330000000;CARBONIFEROUS;;;;;WHOLE ROCK;;;;;;;;;;;;;;;;;;;;;;;;;;;;;;;;;;;;;;;;;;;;;;;;;;;;;;;;;;;;;;;;;;;;;;;;;;;;;;;;;;;;;;;;;;;;;;;;;;;;;;;;;;;;;;;;;;;;;;;;;;;;;;;;;;;;;7.7;TIMS_ID;;;155.8;TIMS_ID;;;;;;;;;;;;;;;;;;;;;;;;;;;;;;;;;;;;;;;;26.9;TIMS_ID;;;5.51;TIMS_ID;;;;;;;;;;;;;;;;;;;;;;;;;;;;;;;;;;;;;;;;;;2.3;TIMS_ID;;;;;;;;;0.9;TIMS_ID;;;;;;0.512601;;0.1239;0.70446;0.1423;19.615;TIMS;;;;;15.572;TIMS;;;;39.743;TIMS;;;;;;;;;;;;;;;;;;;;;;;;;;;;;;;;;;;;;;;;;;;;;;;;;;;;;;;;;;;;;;;;;;;;;;;;;;;
2007;[11102] JACKSON M. G. (2007);samp. OFU-04-02;;SAMOAN ISLANDS / MANUA ISLANDS / OFU;;-14.27;-169.66;-14.27;-169.66;;;OUTCROP;;;SUBAERIAL;VOLCANIC ROCK;ANKARAMITE;;DIKE;0;1000000;QUATERNARY;;;;;MINERAL / COMPONENT (INCL. GROUNDMASS);OLIVINE;OFU-04-02;;;;PRIMARY;;;;;;;;;;;;;;;;;;;;;;;;;;;;;;;;;;;;;;;;;;;;;;;;;;;;;;;;;;;;;;3.86E-08;MS;;;;;;;;;;;;;;;;;;;;;;;;;;;;;;;;;;;;;;;;;;;;;;;;;;;;;;;;;;;;;;;;;;;;;;;;;;;;;;;;;;;;;;;;;;;;;;;;;;;;;;;;;;;;;;;;;;;;;;;;;;;;;;;;;;;;;;;;;;;;;;;;;;;;;;;;;;;;;;;;;;;;;;;;;;;;;;;;;;;;;;;;;;;;;;;;;;;;;;;;;;;;;24.6;MS;;;;;;;;;;;;;;;;;;;;;;;;;;;;;;;;;;;;;;;;;;;;;;;;;;;;;;;;;;;
2007;[11102] JACKSON M. G. (2007);samp. OFU-04-03;208123;SAMOAN ISLANDS / MANUA ISLANDS / OFU;;-14.1738;-169.6413;-14.1738;-169.6413;;;OUTCROP;;;SUBAERIAL;VOLCANIC ROCK;ANKARAMITE;;DIKE;0;1000000;QUATERNARY;;;;;MINERAL / COMPONENT (INCL. GROUNDMASS);OLIVINE;OFU-04-03CR1;PHENOCRYST;;;PRIMARY;;;;;;;;;;;;;;;;;;;;;;;;;;;;;;;;;;;;;;;;;;;;;;;;;;;;;;;;;;;;;;1.19E-07;MS;;;;;;;;;;;;;;;;;;;;;;;;;;;;;;;;;;;;;;;;;;;;;;;;;;;;;;;;;;;;;;;;;;;;;;;;;;;;;;;;;;;;;;;;;;;;;;;;;;;;;;;;;;;;;;;;;;;;;;;;;;;;;;;;;;;;;;;;;;;;;;;;;;;;;;;;;;;;;;;;;;;;;;;;;;;;;;;;;;;;;;;;;;;;;;;;;;;;;;;;;;;;;24;MS;;;;;;;;;;;;;;;;;;;;;;;;;;;;;;;;;;;;;;;;;;;;;;;;;;;;;;;;;;;
2007;[11102] JACKSON M. G. (2007);samp. OFU-04-03;208123;SAMOAN ISLANDS / MANUA ISLANDS / OFU;;-14.1738;-169.6413;-14.1738;-169.6413;;;OUTCROP;;;SUBAERIAL;VOLCANIC ROCK;ANKARAMITE;;DIKE;0;1000000;QUATERNARY;;;;;MINERAL / COMPONENT (INCL. GROUNDMASS);OLIVINE;OFU-04-03-CR2;PHENOCRYST;;;PRIMARY;;;;;;;;;;;;;;;;;;;;;;;;;;;;;;;;;;;;;;;;;;;;;;;;;;;;;;;;;;;;;;1.15E-08;MS;;;;;;;;;;;;;;;;;;;;;;;;;;;;;;;;;;;;;;;;;;;;;;;;;;;;;;;;;;;;;;;;;;;;;;;;;;;;;;;;;;;;;;;;;;;;;;;;;;;;;;;;;;;;;;;;;;;;;;;;;;;;;;;;;;;;;;;;;;;;;;;;;;;;;;;;;;;;;;;;;;;;;;;;;;;;;;;;;;;;;;;;;;;;;;;;;;;;;;;;;;;;;23.9;MS;;;;;;;;;;;;;;;;;;;;;;;;;;;;;;;;;;;;;;;;;;;;;;;;;;;;;;;;;;;
2007;[11102] JACKSON M. G. (2007);samp. OFU-04-05;208125;SAMOAN ISLANDS / MANUA ISLANDS / OFU;;-14.27;-169.66;-14.27;-169.66;;;OUTCROP;;;SUBAERIAL;VOLCANIC ROCK;ANKARAMITE;;DIKE;0;1000000;QUATERNARY;;;;;MINERAL / COMPONENT (INCL. GROUNDMASS);OLIVINE;OFU-04-05;PHENOCRYST;;;PRIMARY;;;;;;;;;;;;;;;;;;;;;;;;;;;;;;;;;;;;;;;;;;;;;;;;;;;;;;;;;;;;;;7.08E-08;MS;;;;;;;;;;;;;;;;;;;;;;;;;;;;;;;;;;;;;;;;;;;;;;;;;;;;;;;;;;;;;;;;;;;;;;;;;;;;;;;;;;;;;;;;;;;;;;;;;;;;;;;;;;;;;;;;;;;;;;;;;;;;;;;;;;;;;;;;;;;;;;;;;;;;;;;;;;;;;;;;;;;;;;;;;;;;;;;;;;;;;;;;;;;;;;;;;;;;;;;;;;;;;24.4;MS;;;;;;;;;;;;;;;;;;;;;;;;;;;;;;;;;;;;;;;;;;;;;;;;;;;;;;;;;;;
2007;[11102] JACKSON M. G. (2007);samp. OFU-04-06;169995;SAMOAN ISLANDS / MANUA ISLANDS / OFU;;-14.27;-169.66;-14.27;-169.66;;;OUTCROP;;;SUBAERIAL;VOLCANIC ROCK;ANKARAMITE;;DIKE;0;1000000;QUATERNARY;;;;;MINERAL / COMPONENT (INCL. GROUNDMASS);OLIVINE;OFU-04-06CR1;PHENOCRYST;;;PRIMARY;;;;;;;;;;;;;;;;;;;;;;;;;;;;;;;;;;;;;;;;;;;;;;;;;;;;;;;;;;;;;;4.4E-08;MS;;;;;;;;;;;;;;;;;;;;;;;;;;;;;;;;;;;;;;;;;;;;;;;;;;;;;;;;;;;;;;;;;;;;;;;;;;;;;;;;;;;;;;;;;;;;;;;;;;;;;;;;;;;;;;;;;;;;;;;;;;;;;;;;;;;;;;;;;;;;;;;;;;;;;;;;;;;;;;;;;;;;;;;;;;;;;;;;;;;;;;;;;;;;;;;;;;;;;;;;;;;;;33.7;MS;;;;;;;;;;;;;;;;;;;;;;;;;;;;;;;;;;;;;;;;;;;;;;;;;;;;;;;;;;;
2007;[11102] JACKSON M. G. (2007);samp. OFU-04-06;169995;SAMOAN ISLANDS / MANUA ISLANDS / OFU;;-14.27;-169.66;-14.27;-169.66;;;OUTCROP;;;SUBAERIAL;VOLCANIC ROCK;ANKARAMITE;;DIKE;0;1000000;QUATERNARY;;;;;MINERAL / COMPONENT (INCL. GROUNDMASS);OLIVINE;OFU-04-06CR2;PHENOCRYST;;;PRIMARY;;;;;;;;;;;;;;;;;;;;;;;;;;;;;;;;;;;;;;;;;;;;;;;;;;;;;;;;;;;;;;5E-09;MS;;;;;;;;;;;;;;;;;;;;;;;;;;;;;;;;;;;;;;;;;;;;;;;;;;;;;;;;;;;;;;;;;;;;;;;;;;;;;;;;;;;;;;;;;;;;;;;;;;;;;;;;;;;;;;;;;;;;;;;;;;;;;;;;;;;;;;;;;;;;;;;;;;;;;;;;;;;;;;;;;;;;;;;;;;;;;;;;;;;;;;;;;;;;;;;;;;;;;;;;;;;;;33.8;MS;;;;;;;;;;;;;;;;;;;;;;;;;;;;;;;;;;;;;;;;;;;;;;;;;;;;;;;;;;;
2007;[11102] JACKSON M. G. (2007);samp. OFU-04-06;169995;SAMOAN ISLANDS / MANUA ISLANDS / OFU;;-14.27;-169.66;-14.27;-169.66;;;OUTCROP;;;SUBAERIAL;VOLCANIC ROCK;ANKARAMITE;;DIKE;0;1000000;QUATERNARY;;;;;MINERAL / COMPONENT (INCL. GROUNDMASS);OLIVINE;OFU-04-06FUS;PHENOCRYST;;;PRIMARY;;;;;;;;;;;;;;;;;;;;;;;;;;;;;;;;;;;;;;;;;;;;;;;;;;;;;;;;;;;;;;1.85E-08;MS;;;;;;;;;;;;;;;;;;;;;;;;;;;;;;;;;;;;;;;;;;;;;;;;;;;;;;;;;;;;;;;;;;;;;;;;;;;;;;;;;;;;;;;;;;;;;;;;;;;;;;;;;;;;;;;;;;;;;;;;;;;;;;;;;;;;;;;;;;;;;;;;;;;;;;;;;;;;;;;;;;;;;;;;;;;;;;;;;;;;;;;;;;;;;;;;;;;;;;;;;;;;;27;MS;;;;;;;;;;;;;;;;;;;;;;;;;;;;;;;;;;;;;;;;;;;;;;;;;;;;;;;;;;;
2007;[11102] JACKSON M. G. (2007);samp. OFU-04-06;169995;SAMOAN ISLANDS / MANUA ISLANDS / OFU;;-14.27;-169.66;-14.27;-169.66;;;OUTCROP;;;SUBAERIAL;VOLCANIC ROCK;ANKARAMITE;;DIKE;0;1000000;QUATERNARY;;;;;MINERAL / COMPONENT (INCL. GROUNDMASS);OLIVINE;OFU-04-06-LIGHT;PHENOCRYST;;;PRIMARY;;;;;;;;;;;;;;;;;;;;;;;;;;;;;;;;;;;;;;;;;;;;;;;;;;;;;;;;;;;;;;2.73E-08;MS;;;;;;;;;;;;;;;;;;;;;;;;;;;;;;;;;;;;;;;;;;;;;;;;;;;;;;;;;;;;;;;;;;;;;;;;;;;;;;;;;;;;;;;;;;;;;;;;;;;;;;;;;;;;;;;;;;;;;;;;;;;;;;;;;;;;;;;;;;;;;;;;;;;;;;;;;;;;;;;;;;;;;;;;;;;;;;;;;;;;;;;;;;;;;;;;;;;;;;;;;;;;;33.4;MS;;;;;;;;;;;;;;;;;;;;;;;;;;;;;;;;;;;;;;;;;;;;;;;;;;;;;;;;;;;
2007;[11102] JACKSON M. G. (2007);samp. OFU-04-06;169995;SAMOAN ISLANDS / MANUA ISLANDS / OFU;;-14.27;-169.66;-14.27;-169.66;;;OUTCROP;;;SUBAERIAL;VOLCANIC ROCK;ANKARAMITE;;DIKE;0;1000000;QUATERNARY;;;;;MINERAL / COMPONENT (INCL. GROUNDMASS);OLIVINE;OFU-04-06-DARK;PHENOCRYST;;;PRIMARY;;;;;;;;;;;;;;;;;;;;;;;;;;;;;;;;;;;;;;;;;;;;;;;;;;;;;;;;;;;;;;4E-08;MS;;;;;;;;;;;;;;;;;;;;;;;;;;;;;;;;;;;;;;;;;;;;;;;;;;;;;;;;;;;;;;;;;;;;;;;;;;;;;;;;;;;;;;;;;;;;;;;;;;;;;;;;;;;;;;;;;;;;;;;;;;;;;;;;;;;;;;;;;;;;;;;;;;;;;;;;;;;;;;;;;;;;;;;;;;;;;;;;;;;;;;;;;;;;;;;;;;;;;;;;;;;;;33.6;MS;;;;;;;;;;;;;;;;;;;;;;;;;;;;;;;;;;;;;;;;;;;;;;;;;;;;;;;;;;;
2007;[11102] JACKSON M. G. (2007);samp. OFU-04-06;169995;SAMOAN ISLANDS / MANUA ISLANDS / OFU;;-14.27;-169.66;-14.27;-169.66;;;OUTCROP;;;SUBAERIAL;VOLCANIC ROCK;ANKARAMITE;;DIKE;0;1000000;QUATERNARY;;;;;MINERAL / COMPONENT (INCL. GROUNDMASS);CLINOPYROXENE;OFU-04-06A;PHENOCRYST;;;PRIMARY;;;;;;;;;;;;;;;;;;;;;;;;;;;;;;;;;;;;;;;;;;;;;;;;;;;;;;;;;;;;;;2E-10;MS;;;;;;;;;;;;;;;;;;;;;;;;;;;;;;;;;;;;;;;;;;;;;;;;;;;;;;;;;;;;;;;;;;;;;;;;;;;;;;;;;;;;;;;;;;;;;;;;;;;;;;;;;;;;;;;;;;;;;;;;;;;;;;;;;;;;;;;;;;;;;;;;;;;;;;;;;;;;;;;;;;;;;;;;;;;;;;;;;;;;;;;;;;;;;;;;;;;;;;;;;;;;;26.1;MS;;;;;;;;;;;;;;;;;;;;;;;;;;;;;;;;;;;;;;;;;;;;;;;;;;;;;;;;;;;
2007;[11102] JACKSON M. G. (2007);samp. OFU-04-08;208133;SAMOAN ISLANDS / MANUA ISLANDS / OFU;;-14.27;-169.66;-14.27;-169.66;;;OUTCROP;;;SUBAERIAL;VOLCANIC ROCK;ANKARAMITE;;DIKE;0;1000000;QUATERNARY;;;;;MINERAL / COMPONENT (INCL. GROUNDMASS);OLIVINE;OFU-04-08;PHENOCRYST;;;PRIMARY;;;;;;;;;;;;;;;;;;;;;;;;;;;;;;;;;;;;;;;;;;;;;;;;;;;;;;;;;;;;;;4.5E-09;MS;;;;;;;;;;;;;;;;;;;;;;;;;;;;;;;;;;;;;;;;;;;;;;;;;;;;;;;;;;;;;;;;;;;;;;;;;;;;;;;;;;;;;;;;;;;;;;;;;;;;;;;;;;;;;;;;;;;;;;;;;;;;;;;;;;;;;;;;;;;;;;;;;;;;;;;;;;;;;;;;;;;;;;;;;;;;;;;;;;;;;;;;;;;;;;;;;;;;;;;;;;;;;21.3;MS;;;;;;;;;;;;;;;;;;;;;;;;;;;;;;;;;;;;;;;;;;;;;;;;;;;;;;;;;;;
2007;[11102] JACKSON M. G. (2007);samp. OFU-04-09;208134;SAMOAN ISLANDS / MANUA ISLANDS / OFU;;-14.27;-169.66;-14.27;-169.66;;;OUTCROP;;;SUBAERIAL;VOLCANIC ROCK;ANKARAMITE;;FLOW;0;1000000;QUATERNARY;;;;;MINERAL / COMPONENT (INCL. GROUNDMASS);OLIVINE;OFU-04-09;PHENOCRYST;;;PRIMARY;;;;;;;;;;;;;;;;;;;;;;;;;;;;;;;;;;;;;;;;;;;;;;;;;;;;;;;;;;;;;;3.2E-09;MS;;;;;;;;;;;;;;;;;;;;;;;;;;;;;;;;;;;;;;;;;;;;;;;;;;;;;;;;;;;;;;;;;;;;;;;;;;;;;;;;;;;;;;;;;;;;;;;;;;;;;;;;;;;;;;;;;;;;;;;;;;;;;;;;;;;;;;;;;;;;;;;;;;;;;;;;;;;;;;;;;;;;;;;;;;;;;;;;;;;;;;;;;;;;;;;;;;;;;;;;;;;;;25.6;MS;;;;;;;;;;;;;;;;;;;;;;;;;;;;;;;;;;;;;;;;;;;;;;;;;;;;;;;;;;;
2007;[11102] JACKSON M. G. (2007);samp. OFU-04-15;208141;SAMOAN ISLANDS / MANUA ISLANDS / OFU;;-14.27;-169.66;-14.27;-169.66;;;OUTCROP;;;SUBAERIAL;VOLCANIC ROCK;ANKARAMITE;;BOULDER;0;1000000;QUATERNARY;;;;;MINERAL / COMPONENT (INCL. GROUNDMASS);OLIVINE;OFU-04-15;PHENOCRYST;;;PRIMARY;;;;;;;;;;;;;;;;;;;;;;;;;;;;;;;;;;;;;;;;;;;;;;;;;;;;;;;;;;;;;;1.43E-08;MS;;;;;;;;;;;;;;;;;;;;;;;;;;;;;;;;;;;;;;;;;;;;;;;;;;;;;;;;;;;;;;;;;;;;;;;;;;;;;;;;;;;;;;;;;;;;;;;;;;;;;;;;;;;;;;;;;;;;;;;;;;;;;;;;;;;;;;;;;;;;;;;;;;;;;;;;;;;;;;;;;;;;;;;;;;;;;;;;;;;;;;;;;;;;;;;;;;;;;;;;;;;;;29.6;MS;;;;;;;;;;;;;;;;;;;;;;;;;;;;;;;;;;;;;;;;;;;;;;;;;;;;;;;;;;;
2007;[11102] JACKSON M. G. (2007);samp. OFU-04-15;208141;SAMOAN ISLANDS / MANUA ISLANDS / OFU;;-14.27;-169.66;-14.27;-169.66;;;OUTCROP;;;SUBAERIAL;VOLCANIC ROCK;ANKARAMITE;;BOULDER;0;1000000;QUATERNARY;;;;;MINERAL / COMPONENT (INCL. GROUNDMASS);OLIVINE;OFU-04-15FUS;PHENOCRYST;;;PRIMARY;;;;;;;;;;;;;;;;;;;;;;;;;;;;;;;;;;;;;;;;;;;;;;;;;;;;;;;;;;;;;;3.2E-09;MS;;;;;;;;;;;;;;;;;;;;;;;;;;;;;;;;;;;;;;;;;;;;;;;;;;;;;;;;;;;;;;;;;;;;;;;;;;;;;;;;;;;;;;;;;;;;;;;;;;;;;;;;;;;;;;;;;;;;;;;;;;;;;;;;;;;;;;;;;;;;;;;;;;;;;;;;;;;;;;;;;;;;;;;;;;;;;;;;;;;;;;;;;;;;;;;;;;;;;;;;;;;;;21.2;MS;;;;;;;;;;;;;;;;;;;;;;;;;;;;;;;;;;;;;;;;;;;;;;;;;;;;;;;;;;;
2007;[11102] JACKSON M. G. (2007);samp. MO01-01;11087;SOCIETY ISLANDS / MOOREA;;-17.481;-149.777;-17.583;-149.872;;;OUTCROP;;;SUBAERIAL;VOLCANIC ROCK;ANKARAMITE;;;;;;;;;;MINERAL / COMPONENT (INCL. GROUNDMASS);OLIVINE;;;;;PRIMARY;;;;;;;;;;;;;;;;;;;;;;;;;;;;;;;;;;;;;;;;;;;;;;;;;;;;;;;;;;;;;;1.3E-09;MS;;;;;;;;;;;;;;;;;;;;;;;;;;;;;;;;;;;;;;;;;;;;;;;;;;;;;;;;;;;;;;;;;;;;;;;;;;;;;;;;;;;;;;;;;;;;;;;;;;;;;;;;;;;;;;;;;;;;;;;;;;;;;;;;;;;;;;;;;;;;;;;;;;;;;;;;;;;;;;;;;;;;;;;;;;;;;;;;;;;;;;;;;;;;;;;;;;;;;;;;;;;;;17;MS;;;;;;;;;;;;;;;;;;;;;;;;;;;;;;;;;;;;;;;;;;;;;;;;;;;;;;;;;;;