Year;CITATION;SAMPLE NAME;UNIQUE_ID;LOCATION;LOCATION COMMENT;LATITUDE (MIN.);LONGITUDE (MIN.);LATITUDE (MAX.);LONGITUDE (MAX.);ELEVATION (MIN.);ELEVATION (MAX.);SAMPLING TECHNIQUE;DRILLING DEPTH (MIN.);DRILLING DEPTH (MAX.);LAND/SEA (SAMPLING);ROCK TYPE;ROCK NAME;ROCK TEXTURE;SAMPLE COMMENT;AGE (MIN.);AGE (MAX.);GEOLOGICAL AGE;GEOLOGICAL AGE PREFIX;ERUPTION YEAR;ALTERATION;ALTERATION TYPE;TYPE OF MATERIAL;MINERAL / COMPONENT;SPOT (MINERAL);CRYSTAL;RIM / CORE (MINERAL GRAINS);GRAIN SIZE;PRIMARY/SECONDARY;INCLUSION TYPE;SPOT (INCLUSION);MINERAL (INCLUSION);RIM / CORE (INCLUSION);HOSTMINERAL (INCLUSION);HEATING;HEATING TEMPERATURE (?C);SIO2(WT%);TIO2(WT%);AL2O3(WT%);CR2O3(WT%);V2O3(WT%);V2O5(WT%);FE2O3T(WT%);FE2O3(WT%);FEOT(WT%);FEO(WT%);CAO(WT%);MGO(WT%);MNO(WT%);BAO(WT%);SRO(WT%);NIO(WT%);ZNO(WT%);COO(WT%);K2O(WT%);;;;NA2O(WT%);;;;P2O5(WT%);H2O(WT%);H2OP(WT%);H2OM(WT%);CO2(WT%);F(WT%);CL(WT%);CL2(WT%);SO3(WT%);S(WT%);LOI(WT%);O(WT%);SI(WT%);AL(WT%);TI(WT%);FE(WT%);MG(WT%);MN(WT%);CA(WT%);K(WT%): altern. values or methods;;;;NA(WT%);CR(WT%);NI(WT%);HE(CCMSTP/G);HE3(CCMSTP/G);HE4(CCMSTP/G): altern. values or methods;;;;LI(PPM);BE(PPM);B(PPM);F(PPM);NE20(CCMSTP/G);NE22(CCMSTP/G);P(PPM);S(PPM);CL(PPM);AR36(CCMSTP/G);AR40(CCMSTP/G);AR40(MOL/G): altern. values or methods;;;;AR40(PPB);K(PPM);SC(PPM): altern. values or methods;;;;;;TI(PPM);V(PPM): altern. values or methods;;;;CR(PPM): altern. values or methods;;;;MN(PPM);FE(PPM);CO(PPM): altern. values or methods;;;;;;NI(PPM): altern. values or methods;;;;;;CU(PPM): altern. values or methods;;;;ZN(PPM): altern. values or methods;;;;GA(PPM): altern. values or methods;;;;GE(PPM);AS(PPM);KR84(CCMSTP/G);RB(PPM): altern. values or methods;;;;SR(PPM): altern. values or methods;;;;Y(PPM): altern. values or methods;;;;ZR(PPM): altern. values or methods;;;;NB(PPM): altern. values or methods;;;;MO(PPM);RU(PPB);RH(PPB);PD(PPB);IN(PPM);SN(PPM);SB(PPM);XE132(CCMSTP/G);CS(PPM);BA(PPM): altern. values or methods;;;;LA(PPM): altern. values or methods;;;;CE(PPM): altern. values or methods;;;;PR(PPM): altern. values or methods;;;;ND(PPM): altern. values or methods;;;;SM(PPM): altern. values or methods;;;;EU(PPM): altern. values or methods;;;;GD(PPM);TB(PPM): altern. values or methods;;;;DY(PPM);HO(PPM);ER(PPM);TM(PPM);YB(PPM): altern. values or methods;;;;LU(PPM);HF(PPM): altern. values or methods;;;;TA(PPM);W(PPM);RE(PPB): altern. values or methods;;;;RE(PPT);OS(PPB): altern. values or methods;;;;OS(PPT);IR(PPB);PT(PPB);AU(PPB);HG(PPB);TL(PPM);PB(PPM): altern. values or methods;;;;PB210_ACT(DPM/G);TH(PPM): altern. values or methods;;;;TH(PPB);U(PPM): altern. values or methods;;;;U(PPB);CO2(PPM);H2O(PPM);ND143_ND144;ND148_ND144;SM147_ND144;SR87_SR86;RB87_SR86;PB206_PB204: altern. values or methods;;;;PB206_PB207;PB206_PB208;PB207_PB204: altern. values or methods;;;;PB207_PB206;PB208_PB204: altern. values or methods;;;;PB208_PB206;OS187_OS186;OS187_OS188: altern. values or methods;;;;RE187_OS188: altern. values or methods;;;;HF176_HF177;HE3_HE4;HE3_HE4(R/R(A)): altern. values or methods;;;;HE4_HE3: altern. values or methods;;;;;;HE4_HE3(R/R(A)): altern. values or methods;;;;AR38_AR36;AR40_AR36;NE20_NE22;NE21_NE22;XE129_XE132;PB206_U238;PB207_U235;PB210_U238;TH232_U238;U238_PB204;D13C(VS SMOW);D17O(VS VSMOW);D18O(PER MIL);D18O(VS PDB);D18O(VS SMOW);D18O(VS VSMOW);D34S(VS CDT);D44_40CA(VS SRM915A);D56FE(VS IRMM-014);DD(VS SMOW);ALBITE(MOL%);ACMITE(MOL%);ANORTHITE(MOL%);ENSTATITE(MOL%);FAYALITE(MOL%);FORSTERITE(MOL%);FERROSILITE(MOL%);HEMATITE(MOL%);LARNITE(MOL%);ORTHOCLASE(MOL%);PSEUDOBROOKITE(MOL%);TEPHROITE(MOL%);ULVOSPINEL(MOL%);WOLLASTONITE(MOL%);AGE(KA);AGE(MA): altern. values or methods;;;;;;;;AGE_PB207_PB206(MA);AGE_PB207_U235(MA);AGE_PB206_U238(MA);
1959;[4427] KAPP H. (1959);samp. NO.28;;NORTH ATLANTIC IGNEOUS PROVINCE (NAIP) / EAST GREENLAND;WERNER BJERGE, SCORESBY SUND;72;-22;73;-26;;;OUTCROP;;;SUBAERIAL;VOLCANIC ROCK;ANKARAMITE;;;;;CENOZOIC;;;;;WHOLE ROCK;;;;;;;;;;;;;;43.2;3.6;8.57;;;;;5;;6.24;15.65;12;0.14;;;;;;0.78;WET;;;1.3;WET;;;0.36;;2.4;0.8;;;;;;;;;;;;;;;;;;;;;;;;;;;;;;;;;;;;;;;;;;;;;;;;;;;;;;;;;;;;;;;;;;;;;;;;;;;;;;;;;;;;;;;;;;;;;;;;;;;;;;;;;;;;;;;;;;;;;;;;;;;;;;;;;;;;;;;;;;;;;;;;;;;;;;;;;;;;;;;;;;;;;;;;;;;;;;;;;;;;;;;;;;;;;;;;;;;;;;;;;;;;;;;;;;;;;;;;;;;;;;;;;;;;;;;;;;;;;;;;;;;;;;;;;;;;;;;;;;;;;;;;;;;;;;;;;;;;;;;;;;;;;;;;;;;
2000;[4843] THIRLWALL M. F. (2000);samp. AD5;;CANARY ISLANDS / TENERIFE;ROQUE DEL CONDE MASSIF;28.3;-16.6;28.3;-16.6;;;OUTCROP;;;SUBAERIAL;VOLCANIC ROCK;ANKARAMITE;;;11000000;;MIOCENE;;;;;WHOLE ROCK;;;;;;;;;;;;;;44.83;3.31;12.81;;;;13.09;;;;11.77;9.47;0.183;;;;;;0.888;XRF;;;2.44;XRF;;;0.514;;;;;;;;;;0.1;;;;;;;;;;;;;;;;;;;;;;;;;;;;;;;;;;;;;;;32;XRF;;;;;;323;XRF;;;468;XRF;;;;;;;;;;;255;XRF;;;;;102;XRF;;;98;XRF;;;18.7;XRF;;;;;;15.7;XRF;;;606;XRF;;;27.6;XRF;;;258;XRF;;;58.2;XRF;;;;;;;;;;;;256;XRF;;;38;XRF;;;86;XRF;;;;;;;44;XRF;;;;;;;;;;;;;;;;;;;;;;;;;;;;;;;;;;;;;;;;;;;;;;2;XRF;;;;3.8;XRF;;;;;;;;;;;;;;;;;;;;;;;;;;;;;;;;;;;;;;;;;;;;;;;;;;;;;;;;;;;;;;;;;;;;;;;;;;;;;;;;;;;;;;;;;;;;;;;;;;;;;;;
2000;[4843] THIRLWALL M. F. (2000);samp. AD11;;CANARY ISLANDS / TENERIFE;ROQUE DEL CONDE MASSIF;28.3;-16.6;28.3;-16.6;;;OUTCROP;;;SUBAERIAL;VOLCANIC ROCK;ANKARAMITE;;;11000000;;MIOCENE;;;;;WHOLE ROCK;;;;;;;;;;;;;;43.71;3.25;11.15;;;;13.18;;;;13.23;11.28;0.182;;;;;;0.828;XRF;;;2.31;XRF;;;0.469;;;;;;;;;;-0.14;;;;;;;;;;;;;;;;;;;;;;;;;;;;;;115;;;;;;;;;40;XRF;;;;;;337;XRF;;;621;XRF;;;;;;;;;;;241;XRF;;;;;130;XRF;;;94;XRF;;;17.6;XRF;;;;;;17.7;XRF;;;601;XRF;;;26.3;XRF;;;259;XRF;;;70.8;XRF;;;;;;;;;;;;269;XRF;;;41;XRF;39.6;TIMS_ID;91;XRF;85;TIMS_ID;;;;;44;XRF;42.63;TIMS_ID;8.541;TIMS_ID;;;2.639;TIMS_ID;;;7.67;;;;;5.45;;2.37;;1.714;TIMS_ID;;;0.232;;;;;;;;;;;;;;;;;;;;;;1.9;XRF;1.74;TIMS_ID;;3.7;XRF;;;;0.77;TIMS_ID;;;;;;;;;;;;;;;;;;;;;;;;;;;;;;;;;;;;;;;;;;;;;;;;;;;;;;;;;;;;;;;;;;;;;;;;;;;;;;;;;;;;;;;;;;;;;;;;;;
2000;[4843] THIRLWALL M. F. (2000);samp. AD12;;CANARY ISLANDS / TENERIFE;ROQUE DEL CONDE MASSIF;28.3;-16.6;28.3;-16.6;;;OUTCROP;;;SUBAERIAL;VOLCANIC ROCK;ANKARAMITE;;;11000000;;MIOCENE;;;;;WHOLE ROCK;;;;;;;;;;;;;;43.66;3.43;12.14;;;;13.85;;;;12.94;10.32;0.186;;;;;;0.957;XRF;;;1.84;XRF;;;0.367;;;;;;;;;;0.51;;;;;;;;;;;;;;;;;;;;;;;;;;;;;;63;;;;;;;;;36;XRF;;;;;;351;XRF;;;494;XRF;;;;;;;;;;;184;XRF;;;;;116;XRF;;;95;XRF;;;18.3;XRF;;;;;;23.1;XRF;;;522;XRF;;;23.7;XRF;;;189;XRF;;;40.4;XRF;;;;;;;;;;;;206;XRF;;;28;XRF;;;65;XRF;;;;;;;33;XRF;;;;;;;;;;;;;;;;;;;;;;;;;;;;;;;;;;;;;;;;;;;;;;1.4;XRF;;;;2.7;XRF;;;;;;;;;;;;;;;;;;;;;;;;;;;;;;;;;;;;;;;;;;;;;;;;;;;;;;;;;;;;;;;;;;;;;;;;;;;;;;;;;;;;;;;;;;;;;;;;;;;;;;;
2000;[4843] THIRLWALL M. F. (2000);samp. AD24;;CANARY ISLANDS / TENERIFE;ROQUE DEL CONDE MASSIF;28.3;-16.6;28.3;-16.6;;;OUTCROP;;;SUBAERIAL;VOLCANIC ROCK;ANKARAMITE;;;11000000;;MIOCENE;;;;;WHOLE ROCK;;;;;;;;;;;;;;43.88;4.01;14.9;;;;13.93;;;;11.88;6.96;0.199;;;;;;1.117;XRF;;;2.43;XRF;;;0.487;;;;;;;;;;0.31;;;;;;;;;;;;;;;;;;;;;;;;;;;;;;135;;;;;;;;;25;XRF;;;;;;386;XRF;;;141;XRF;;;;;;;;;;;68;XRF;;;;;91;XRF;;;103;XRF;;;20.7;XRF;;;;;;28.3;XRF;;;1076;XRF;;;29.1;XRF;;;265;XRF;;;105.4;XRF;;;;;;;;;;;;332;XRF;;;65;XRF;68;TIMS_ID;133;XRF;122.2;TIMS_ID;;;;;51;XRF;48.52;TIMS_ID;8.848;TIMS_ID;;;2.743;TIMS_ID;;;7.78;;;;;5.71;;2.58;;1.94;TIMS_ID;;;;;;;;;;;;;;;;;;;;;;;;;3;XRF;;;;5.3;XRF;;;;;;;;;;;;;;;;;;;;;;;;;;;;;;;;;;;;;;;;;;;;;;;;;;;;;;;;;;;;;;;;;;;;;;;;;;;;;;;;;;;;;;;;;;;;;;;;;;;;;;;
2000;[4843] THIRLWALL M. F. (2000);samp. AN13;;CANARY ISLANDS / TENERIFE;ANAGA MASSIF;28.5;-16.3;28.5;-16.3;;;OUTCROP;;;SUBAERIAL;VOLCANIC ROCK;ANKARAMITE;;;4200000;8000000;NEOGENE;;;;;WHOLE ROCK;;;;;;;;;;;;;;42.43;3.63;9.52;;;;14.65;;;;14.6;12.38;0.19;;;;;;0.354;XRF;;;1.54;XRF;;;0.237;;;;;;;;;;0.33;;;;;;;;;;;;;;;;;;;;;;;;;;;;;;64;;;;;;;;;52;XRF;;;;;;435;XRF;;;741;XRF;;;;;;;;;;;226;XRF;;;;;68;XRF;;;79;XRF;;;15.9;XRF;;;;;;5.6;XRF;;;343;XRF;;;17;XRF;;;136;XRF;;;29.6;XRF;;;;;;;;;;;;235;XRF;;;21;XRF;;;54;XRF;;;;;;;28;XRF;;;;;;;;;;;;;;;;;;;;;;;;;;;;;;;;;;;;;;;;;;;;;;0.6;XRF;0.86;TIMS_ID;;2.1;XRF;;;;0.5;TIMS_ID;;;;;;;;;;;;;;;;;;;;;;;;;;;;;;;;;;;;;;;;;;;;;;;;;;;;;;;;;;;;;;;;;;;;;;;;;;;;;;;;;;;;;;;;;;;;;;;;;;
2000;[4843] THIRLWALL M. F. (2000);samp. AN41;;CANARY ISLANDS / TENERIFE;ANAGA MASSIF;28.5;-16.3;28.5;-16.3;;;OUTCROP;;;SUBAERIAL;VOLCANIC ROCK;ANKARAMITE;;;4200000;8000000;NEOGENE;;;;;WHOLE ROCK;;;;;;;;;;;;;;44.2;3.43;10.68;;;;13.51;;;;12.68;11.32;0.182;;;;;;0.72;XRF;;;2.06;XRF;;;0.499;;;;;;;;;;1.6;;;;;;;;;;;;;;;;;;;;;;;;;;;;;;;;;;;;;;;33;XRF;;;;;;350;XRF;;;729;XRF;;;;;;;;;;;275;XRF;;;;;147;XRF;;;99;XRF;;;17.1;XRF;;;;;;25.9;XRF;;;677;XRF;;;23.4;XRF;;;243;XRF;;;57.5;XRF;;;;;;;;;;;;387;XRF;;;37;XRF;;;84;XRF;;;;;;;43;XRF;;;;;;;;;;;;;;;;;;;;;;;;;;;;;;;;;;;;;;;;;;;;;;1.8;XRF;;;;4.3;XRF;;;;;;;;;;;;;;;;;;;;;;;;;;;;;;;;;;;;;;;;;;;;;;;;;;;;;;;;;;;;;;;;;;;;;;;;;;;;;;;;;;;;;;;;;;;;;;;;;;;;;;;
2000;[4843] THIRLWALL M. F. (2000);samp. AN42;;CANARY ISLANDS / TENERIFE;ANAGA MASSIF;28.5;-16.3;28.5;-16.3;;;OUTCROP;;;SUBAERIAL;VOLCANIC ROCK;ANKARAMITE;;;4200000;8000000;NEOGENE;;;;;WHOLE ROCK;;;;;;;;;;;;;;43.79;3.18;11.27;;;;13.58;;;;12.24;12.62;0.177;;;;;;0.477;XRF;;;2.42;XRF;;;0.429;;;;;;;;;;0.13;;;;;;;;;;;;;;;;;;;;;;;;;;;;;;270;;;;;;;;;36;XRF;;;;;;321;XRF;;;578;XRF;;;;;;;;;;;230;XRF;;;;;95;XRF;;;90;XRF;;;16.7;XRF;;;;;;17.3;XRF;;;555;XRF;;;23.4;XRF;;;187;XRF;;;45.1;XRF;;;;;;;;;;;;324;XRF;;;33;XRF;31.5;TIMS_ID;73;XRF;66.5;TIMS_ID;;;;;37;XRF;34.85;TIMS_ID;7.222;TIMS_ID;;;2.267;TIMS_ID;;;6.48;;;;;4.72;;2.1;;1.543;TIMS_ID;;;0.208;;;;;;;;;;;;;;;;;;;;;;2.2;XRF;;;;3.5;XRF;;;;;;;;;;;;;;;;;;;;;;;;;;;;;;;;;;;;;;;;;;;;;;;;;;;;;;;;;;;;;;;;;;;;;;;;;;;;;;;;;;;;;;;;;;;;;;;;;;;;;;;
2000;[4843] THIRLWALL M. F. (2000);samp. AN25;;CANARY ISLANDS / TENERIFE;ANAGA MASSIF;28.5;-16.3;28.5;-16.3;;;OUTCROP;;;SUBAERIAL;VOLCANIC ROCK;ANKARAMITE;;;4200000;8000000;NEOGENE;;;;;WHOLE ROCK;;;;;;;;;;;;;;42.84;4.3;13.54;;;;14.61;;;;11.09;8.12;0.177;;;;;;0.762;XRF;;;3.46;XRF;;;0.525;;;;;;;;;;0.96;;;;;;;;;;;;;;;;;;;;;;;;;;;;;;71;;;;;;;;;28;XRF;;;;;;422;XRF;;;333;XRF;;;;;;;;;;;150;XRF;;;;;107;XRF;;;95;XRF;;;21.3;XRF;;;;;;44.7;XRF;;;744;XRF;;;24.4;XRF;;;237;XRF;;;59.2;XRF;;;;;;;;;;;;520;XRF;;;40;XRF;;;86;XRF;;;;;;;42;XRF;;;;;;;;;;;;;;;;;;;;;;;;;;;;;;;;;;;;;;;;;;;;;;2.7;XRF;;;;5.1;XRF;;;;;;;;;;;;;;;;;;;;;;;;;;;;;;;;;;;;;;;;;;;;;;;;;;;;;;;;;;;;;;;;;;;;;;;;;;;;;;;;;;;;;;;;;;;;;;;;;;;;;;;
2000;[4843] THIRLWALL M. F. (2000);samp. AN44;;CANARY ISLANDS / TENERIFE;ANAGA MASSIF;28.5;-16.3;28.5;-16.3;;;OUTCROP;;;SUBAERIAL;VOLCANIC ROCK;ANKARAMITE;;;4200000;8000000;NEOGENE;;;;;WHOLE ROCK;;;;;;;;;;;;;;41.62;4.67;12.62;;;;15.4;;;;12.42;8.28;0.189;;;;;;0.726;XRF;;;2.82;XRF;;;0.589;;;;;;;;;;0.45;;;;;;;;;;;;;;;;;;;;;;;;;;;;;;137;;;;;;;;;32;XRF;;;;;;424;XRF;;;352;XRF;;;;;;;;;;;146;XRF;;;;;112;XRF;;;97;XRF;;;20.6;XRF;;;;;;23.3;XRF;;;716;XRF;;;25.3;XRF;;;225;XRF;;;60.9;XRF;;;;;;;;;;;;477;XRF;;;39;XRF;;;90;XRF;;;;;;;46;XRF;;;;;;;;;;;;;;;;;;;;;;;;;;;;;;;;;;;;;;;;;;;;;;2.2;XRF;;;;3.8;XRF;;;;;;;;;;;;;;;;;;;;;;;;;;;;;;;;;;;;;;;;;;;;;;;;;;;;;;;;;;;;;;;;;;;;;;;;;;;;;;;;;;;;;;;;;;;;;;;;;;;;;;;
2000;[4843] THIRLWALL M. F. (2000);samp. TE2;;CANARY ISLANDS / TENERIFE;TENO MASSIF;28.3;-16.83;28.3;-16.83;990;990;OUTCROP;;;SUBAERIAL;VOLCANIC ROCK;ANKARAMITE;;;6000000;6400000;MIOCENE;;;;;WHOLE ROCK;;;;;;;;;;;;;;46.19;3.73;12.71;;;;12.88;;;;11.92;8.21;0.159;;;;;;0.896;XRF;;;2.01;XRF;;;0.458;;;;;;;;;;1.52;;;;;;;;;;;;;;;;;;;;;;;;;;;;;;63;;;;;;;;;34;XRF;;;;;;310;XRF;;;565;XRF;;;;;;;;;;;246;XRF;;;;;126;XRF;;;102;XRF;;;19.8;XRF;;;;;;14.2;XRF;;;549;XRF;;;26.3;XRF;;;238;XRF;;;49.5;XRF;;;;;;;;;;;;251;XRF;;;28;XRF;;;66;XRF;;;;;;;35;XRF;;;;;;;;;;;;;;;;;;;;;;;;;;;;;;;;;;;;;;;;;;;;;;1.7;XRF;1.8;TIMS_ID;;2.7;XRF;;;;0.62;TIMS_ID;;;;;;;;;;;;;;;;;;;;;;;;;;;;;;;;;;;;;;;;;;;;;;;;;;;;;;;;;;;;;;;;;;;;;;;;;;;;;;;;;;;;;;;;;;;;;;;;;;
2000;[4843] THIRLWALL M. F. (2000);samp. TE7;;CANARY ISLANDS / TENERIFE;TENO MASSIF;28.3;-16.83;28.3;-16.83;990;990;OUTCROP;;;SUBAERIAL;VOLCANIC ROCK;ANKARAMITE;;;6000000;6400000;MIOCENE;;;;;WHOLE ROCK;;;;;;;;;;;;;;45.1;3.37;15.26;;;;13.08;;;;10.55;6.9;0.189;;;;;;1.329;XRF;;;3.22;XRF;;;0.602;;;;;;;;;;1.1;;;;;;;;;;;;;;;;;;;;;;;;;;;;;;249;;;;;;;;;20;XRF;;;;;;273;XRF;;;173;XRF;;;;;;;;;;;87;XRF;;;;;85;XRF;;;110;XRF;;;22.5;XRF;;;;;;30;XRF;;;759;XRF;;;29.6;XRF;;;297;XRF;;;75.4;XRF;;;;;;;;;;;;353;XRF;;;49;XRF;;;106;XRF;;;;;;;47;XRF;;;;;;;;;;;;;;;;;;;;;;;;;;;;;;;;;;;;;;;;;;;;;;3.2;XRF;;;;5.5;XRF;;;;;;;;;;;;;;;;;;;;;;;;;;;;;;;;;;;;;;;;;;;;;;;;;;;;;;;;;;;;;;;;;;;;;;;;;;;;;;;;;;;;;;;;;;;;;;;;;;;;;;;
2000;[4843] THIRLWALL M. F. (2000);samp. TE8;;CANARY ISLANDS / TENERIFE;TENO MASSIF;28.3;-16.83;28.3;-16.83;990;990;OUTCROP;;;SUBAERIAL;VOLCANIC ROCK;ANKARAMITE;;;6000000;6400000;MIOCENE;;;;;WHOLE ROCK;;;;;;;;;;;;;;43.59;3.33;13.81;;;;13.92;;;;11.58;9.28;0.173;;;;;;0.998;XRF;;;2.4;XRF;;;0.459;;;;;;;;;;0.99;;;;;;;;;;;;;;;;;;;;;;;;;;;;;;148;;;;;;;;;30;XRF;;;;;;333;XRF;;;286;XRF;;;;;;;;;;;163;XRF;;;;;129;XRF;;;107;XRF;;;20.9;XRF;;;;;;21.9;XRF;;;627;XRF;;;25.5;XRF;;;241;XRF;;;58;XRF;;;;;;;;;;;;274;XRF;;;38;XRF;39;TIMS_ID;83;XRF;78.9;TIMS_ID;;;;;40;XRF;38.41;TIMS_ID;7.855;TIMS_ID;;;2.504;TIMS_ID;;;7.1;;;;;5.19;;2.28;;1.693;TIMS_ID;;;0.235;;;;;;;;;;;;;;;;;;;;;;2.6;XRF;2.4;TIMS_ID;;4.5;XRF;;;;0.99;TIMS_ID;;;;;;;;;;;;;;;;;;;;;;;;;;;;;;;;;;;;;;;;;;;;;;;;;;;;;;;;;;;;;;;;;;;;;;;;;;;;;;;;;;;;;;;;;;;;;;;;;;
2000;[4843] THIRLWALL M. F. (2000);samp. TE9;;CANARY ISLANDS / TENERIFE;TENO MASSIF;28.3;-16.83;28.3;-16.83;990;990;OUTCROP;;;SUBAERIAL;VOLCANIC ROCK;ANKARAMITE;;;6000000;6400000;MIOCENE;;;;;WHOLE ROCK;;;;;;;;;;;;;;43.61;2.21;9.54;;;;13.8;;;;11.12;16.89;0.176;;;;;;0.568;XRF;;;1.23;XRF;;;0.284;;;;;;;;;;0.64;;;;;;;;;;;;;;;;;;;;;;;;;;;;;;3;;;;;;;;;35;XRF;;;;;;252;XRF;;;1037;XRF;;;;;;;;;;;430;XRF;;;;;114;XRF;;;93;XRF;;;14.6;XRF;;;;;;13.3;XRF;;;429;XRF;;;18.1;XRF;;;152;XRF;;;38.7;XRF;;;;;;;;;;;;192;XRF;;;30;XRF;;;60;XRF;;;;;;;28;XRF;;;;;;;;;;;;;;;;;;;;;;;;;;;;;;;;;;;;;;;;;;;;;;1.3;XRF;;;;3.3;XRF;;;;;;;;;;;;;;;;;;;;;;;;;;;;;;;;;;;;;;;;;;;;;;;;;;;;;;;;;;;;;;;;;;;;;;;;;;;;;;;;;;;;;;;;;;;;;;;;;;;;;;;
2000;[4843] THIRLWALL M. F. (2000);samp. TE13;;CANARY ISLANDS / TENERIFE;TENO MASSIF;28.3;-16.83;28.3;-16.83;990;990;OUTCROP;;;SUBAERIAL;VOLCANIC ROCK;ANKARAMITE;;;6000000;6400000;MIOCENE;;;;;WHOLE ROCK;;;;;;;;;;;;;;42.11;3.22;10.43;;;;14.75;;;;12.07;13.3;0.167;;;;;;0.784;XRF;;;2.03;XRF;;;0.39;;;;;;;;;;1.1;;;;;;;;;;;;;;;;;;;;;;;;;;;;;;;;;;;;;;;39;XRF;;;;;;324;XRF;;;679;XRF;;;;;;;;;;;325;XRF;;;;;95;XRF;;;111;XRF;;;18.8;XRF;;;;;;22.4;XRF;;;610;XRF;;;19.3;XRF;;;208;XRF;;;51.7;XRF;;;;;;;;;;;;247;XRF;;;34;XRF;;;77;XRF;;;;;;;35;XRF;;;;;;;;;;;;;;;;;;;;;;;;;;;;;;;;;;;;;;;;;;;;;;2;XRF;;;;3.7;XRF;;;;;;;;;;;;;;;;;;;;;;;;;;;;;;;;;;;;;;;;;;;;;;;;;;;;;;;;;;;;;;;;;;;;;;;;;;;;;;;;;;;;;;;;;;;;;;;;;;;;;;;
2000;[4843] THIRLWALL M. F. (2000);samp. TE25;;CANARY ISLANDS / TENERIFE;TENO MASSIF;28.3;-16.83;28.3;-16.83;990;990;OUTCROP;;;SUBAERIAL;VOLCANIC ROCK;ANKARAMITE;;;6000000;6400000;MIOCENE;;;;;WHOLE ROCK;;;;;;;;;;;;;;44.45;2.73;11.32;;;;12.95;;;;11.79;14.06;0.178;;;;;;0.707;XRF;;;1.2;XRF;;;0.325;;;;;;;;;;1.74;;;;;;;;;;;;;;;;;;;;;;;;;;;;;;;;;;;;;;;37;XRF;;;;;;286;XRF;;;541;XRF;;;;;;;;;;;293;XRF;;;;;70;XRF;;;92;XRF;;;18.1;XRF;;;;;;24.5;XRF;;;466;XRF;;;21.3;XRF;;;171;XRF;;;38.3;XRF;;;;;;;;;;;;198;XRF;;;26;XRF;;;60;XRF;;;;;;;31;XRF;;;;;;;;;;;;;;;;;;;;;;;;;;;;;;;;;;;;;;;;;;;;;;1.1;XRF;;;;2.2;XRF;;;;;;;;;;;;;;;;;;;;;;;;;;;;;;;;;;;;;;;;;;;;;;;;;;;;;;;;;;;;;;;;;;;;;;;;;;;;;;;;;;;;;;;;;;;;;;;;;;;;;;;
2000;[4843] THIRLWALL M. F. (2000);samp. TE26;;CANARY ISLANDS / TENERIFE;TENO MASSIF;28.3;-16.83;28.3;-16.83;990;990;OUTCROP;;;SUBAERIAL;VOLCANIC ROCK;ANKARAMITE;;;6000000;6400000;MIOCENE;;;;;WHOLE ROCK;;;;;;;;;;;;;;45.71;2.89;13.35;;;;12.8;;;;10;10.06;0.177;;;;;;1.102;XRF;;;3;XRF;;;0.549;;;;;;;;;;-0.17;;;;;;;;;;;;;;;;;;;;;;;;;;;;;;283;;;;;;;;;25;XRF;;;;;;245;XRF;;;468;XRF;;;;;;;;;;;225;XRF;;;;;82;XRF;;;103;XRF;;;19;XRF;;;;;;23.4;XRF;;;639;XRF;;;26.8;XRF;;;260;XRF;;;68.2;XRF;;;;;;;;;;;;306;XRF;;;39;XRF;;;86;XRF;;;;;;;42;XRF;;;;;;;;;;;;;;;;;;;;;;;;;;;;;;;;;;;;;;;;;;;;;;1.6;XRF;;;;3.6;XRF;;;;;;;;;;;;;;;;;;;;;;;;;;;;;;;;;;;;;;;;;;;;;;;;;;;;;;;;;;;;;;;;;;;;;;;;;;;;;;;;;;;;;;;;;;;;;;;;;;;;;;;
2000;[4843] THIRLWALL M. F. (2000);samp. TE32;;CANARY ISLANDS / TENERIFE;TENO MASSIF;28.3;-16.83;28.3;-16.83;990;990;OUTCROP;;;SUBAERIAL;VOLCANIC ROCK;ANKARAMITE;;;6000000;6400000;MIOCENE;;;;;WHOLE ROCK;;;;;;;;;;;;;;45.3;2.77;11.6;;;;12.64;;;;13.67;10.53;0.17;;;;;;0.682;XRF;;;2.16;XRF;;;0.343;;;;;;;;;;-0.1;;;;;;;;;;;;;;;;;;;;;;;;;;;;;;166;;;;;;;;;45;XRF;;;;;;336;XRF;;;496;XRF;;;;;;;;;;;190;XRF;;;;;105;XRF;;;89;XRF;;;17;XRF;;;;;;17;XRF;;;481;XRF;;;22.5;XRF;;;174;XRF;;;50.3;XRF;;;;;;;;;;;;225;XRF;;;32;XRF;;;71;XRF;;;;;;;32;XRF;;;;;;;;;;;;;;;;;;;;;;;;;;;;;;;;;;;;;;;;;;;;;;1.6;XRF;;;;3.3;XRF;;;;;;;;;;;;;;;;;;;;;;;;;;;;;;;;;;;;;;;;;;;;;;;;;;;;;;;;;;;;;;;;;;;;;;;;;;;;;;;;;;;;;;;;;;;;;;;;;;;;;;;
2000;[4843] THIRLWALL M. F. (2000);samp. TE34;;CANARY ISLANDS / TENERIFE;TENO MASSIF;28.3;-16.83;28.3;-16.83;990;990;OUTCROP;;;SUBAERIAL;VOLCANIC ROCK;ANKARAMITE;;;6000000;6400000;MIOCENE;;;;;WHOLE ROCK;;;;;;;;;;;;;;43.93;3.45;13;;;;13.68;;;;11.75;9.45;0.176;;;;;;0.962;XRF;;;2.53;XRF;;;0.506;;;;;;;;;;-0.07;;;;;;;;;;;;;;;;;;;;;;;;;;;;;;85;;;;;;;;;30;XRF;;;;;;340;XRF;;;419;XRF;;;;;;;;;;;173;XRF;;;;;80;XRF;;;120;XRF;;;19.3;XRF;;;;;;20.5;XRF;;;642;XRF;;;66.9;XRF;;;248;XRF;;;70.1;XRF;;;;;;;;;;;;409;XRF;;;50;XRF;;;92;XRF;;;;;;;49;XRF;;;;;;;;;;;;;;;;;;;;;;;;;;;;;;;;;;;;;;;;;;;;;;2.4;XRF;;;;3.6;XRF;;;;;;;;;;;;;;;;;;;;;;;;;;;;;;;;;;;;;;;;;;;;;;;;;;;;;;;;;;;;;;;;;;;;;;;;;;;;;;;;;;;;;;;;;;;;;;;;;;;;;;;
2000;[4843] THIRLWALL M. F. (2000);samp. TE36;;CANARY ISLANDS / TENERIFE;TENO MASSIF;28.3;-16.83;28.3;-16.83;990;990;OUTCROP;;;SUBAERIAL;VOLCANIC ROCK;ANKARAMITE;;;6000000;6400000;MIOCENE;;;;;WHOLE ROCK;;;;;;;;;;;;;;44.41;2.87;11.71;;;;13.28;;;;11.74;12.01;0.179;;;;;;0.826;XRF;;;2.25;XRF;;;0.404;;;;;;;;;;-0.24;;;;;;;;;;;;;;;;;;;;;;;;;;;;;;366;;;;;;;;;35;XRF;;;;;;300;XRF;;;548;XRF;;;;;;;;;;;287;XRF;;;;;89;XRF;;;97;XRF;;;18;XRF;;;;;;17.9;XRF;;;502;XRF;;;24.2;XRF;;;197;XRF;;;48.5;XRF;;;;;;;;;;;;251;XRF;;;32;XRF;;;71;XRF;;;;;;;35;XRF;;;;;;;;;;;;;;;;;;;;;;;;;;;;;;;;;;;;;;;;;;;;;;1.7;XRF;;;;3.3;XRF;;;;;;;;;;;;;;;;;;;;;;;;;;;;;;;;;;;;;;;;;;;;;;;;;;;;;;;;;;;;;;;;;;;;;;;;;;;;;;;;;;;;;;;;;;;;;;;;;;;;;;;
2000;[4843] THIRLWALL M. F. (2000);samp. TE15;;CANARY ISLANDS / TENERIFE;TENO MASSIF;28.3;-16.83;28.3;-16.83;990;990;OUTCROP;;;SUBAERIAL;VOLCANIC ROCK;ANKARAMITE;;;6000000;6400000;MIOCENE;;;;;WHOLE ROCK;;;;;;;;;;;;;;43.89;3.15;12.34;;;;13.89;;;;11.68;10.39;0.183;;;;;;0.921;XRF;;;2.56;XRF;;;0.44;;;;;;;;;;-0.46;;;;;;;;;;;;;;;;;;;;;;;;;;;;;;256;;;;;;;;;37;XRF;;;;;;310;XRF;;;456;XRF;;;;;;;;;;;202;XRF;;;;;108;XRF;;;100;XRF;;;19.8;XRF;;;;;;19.3;XRF;;;554;XRF;;;24;XRF;;;210;XRF;;;47.2;XRF;;;;;;;;;;;;243;XRF;;;32;XRF;;;72;XRF;;;;;;;36;XRF;;;;;;;;;;;;;;;;;;;;;;;;;;;;;;;;;;;;;;;;;;;;;;2.6;XRF;;;;3.3;XRF;;;;;;;;;;;;;;;;;;;;;;;;;;;;;;;;;;;;;;;;;;;;;;;;;;;;;;;;;;;;;;;;;;;;;;;;;;;;;;;;;;;;;;;;;;;;;;;;;;;;;;;
2000;[4843] THIRLWALL M. F. (2000);samp. TE43;;CANARY ISLANDS / TENERIFE;TENO MASSIF;28.3;-16.83;28.3;-16.83;990;990;OUTCROP;;;SUBAERIAL;VOLCANIC ROCK;ANKARAMITE;;;6000000;6400000;MIOCENE;;;;;WHOLE ROCK;;;;;;;;;;;;;;44.38;2.93;13.1;;;;14;;;;11.69;10.07;0.184;;;;;;0.805;XRF;;;2.21;XRF;;;0.391;;;;;;;;;;-0.3;;;;;;;;;;;;;;;;;;;;;;;;;;;;;;715;;;;;;;;;32;XRF;;;;;;306;XRF;;;440;XRF;;;;;;;;;;;211;XRF;;;;;158;XRF;;;102;XRF;;;19.9;XRF;;;;;;18;XRF;;;549;XRF;;;25.2;XRF;;;189;XRF;;;49.5;XRF;;;;;;;;;;;;259;XRF;;;35;XRF;;;73;XRF;;;;;;;35;XRF;;;;;;;;;;;;;;;;;;;;;;;;;;;;;;;;;;;;;;;;;;;;;;2.2;XRF;;;;3.5;XRF;;;;;;;;;;;;;;;;;;;;;;;;;;;;;;;;;;;;;;;;;;;;;;;;;;;;;;;;;;;;;;;;;;;;;;;;;;;;;;;;;;;;;;;;;;;;;;;;;;;;;;;