Year;CITATION;SAMPLE NAME;UNIQUE_ID;LOCATION;LOCATION COMMENT;LATITUDE (MIN.);LONGITUDE (MIN.);LATITUDE (MAX.);LONGITUDE (MAX.);ELEVATION (MIN.);ELEVATION (MAX.);SAMPLING TECHNIQUE;DRILLING DEPTH (MIN.);DRILLING DEPTH (MAX.);LAND/SEA (SAMPLING);ROCK TYPE;ROCK NAME;ROCK TEXTURE;SAMPLE COMMENT;AGE (MIN.);AGE (MAX.);GEOLOGICAL AGE;GEOLOGICAL AGE PREFIX;ERUPTION YEAR;ALTERATION;ALTERATION TYPE;TYPE OF MATERIAL;MINERAL / COMPONENT;SPOT (MINERAL);CRYSTAL;RIM / CORE (MINERAL GRAINS);GRAIN SIZE;PRIMARY/SECONDARY;INCLUSION TYPE;SPOT (INCLUSION);MINERAL (INCLUSION);RIM / CORE (INCLUSION);HOSTMINERAL (INCLUSION);HEATING;HEATING TEMPERATURE (?C);SIO2(WT%);TIO2(WT%);AL2O3(WT%);CR2O3(WT%);V2O3(WT%);V2O5(WT%);FE2O3T(WT%);FE2O3(WT%);FEOT(WT%);FEO(WT%);CAO(WT%);MGO(WT%);MNO(WT%);BAO(WT%);SRO(WT%);NIO(WT%);ZNO(WT%);COO(WT%);K2O(WT%);;;;NA2O(WT%);;;;P2O5(WT%);H2O(WT%);H2OP(WT%);H2OM(WT%);CO2(WT%);F(WT%);CL(WT%);CL2(WT%);SO3(WT%);S(WT%);LOI(WT%);O(WT%);SI(WT%);AL(WT%);TI(WT%);FE(WT%);MG(WT%);MN(WT%);CA(WT%);K(WT%): altern. values or methods;;;;NA(WT%);CR(WT%);NI(WT%);HE(CCMSTP/G);HE3(CCMSTP/G);HE4(CCMSTP/G): altern. values or methods;;;;LI(PPM);BE(PPM);B(PPM);F(PPM);NE20(CCMSTP/G);NE22(CCMSTP/G);P(PPM);S(PPM);CL(PPM);AR36(CCMSTP/G);AR40(CCMSTP/G);AR40(MOL/G): altern. values or methods;;;;AR40(PPB);K(PPM);SC(PPM): altern. values or methods;;;;;;TI(PPM);V(PPM): altern. values or methods;;;;CR(PPM): altern. values or methods;;;;MN(PPM);FE(PPM);CO(PPM): altern. values or methods;;;;;;NI(PPM): altern. values or methods;;;;;;CU(PPM): altern. values or methods;;;;ZN(PPM): altern. values or methods;;;;GA(PPM): altern. values or methods;;;;GE(PPM);AS(PPM);KR84(CCMSTP/G);RB(PPM): altern. values or methods;;;;SR(PPM): altern. values or methods;;;;Y(PPM): altern. values or methods;;;;ZR(PPM): altern. values or methods;;;;NB(PPM): altern. values or methods;;;;MO(PPM);RU(PPB);RH(PPB);PD(PPB);IN(PPM);SN(PPM);SB(PPM);XE132(CCMSTP/G);CS(PPM);BA(PPM): altern. values or methods;;;;LA(PPM): altern. values or methods;;;;CE(PPM): altern. values or methods;;;;PR(PPM): altern. values or methods;;;;ND(PPM): altern. values or methods;;;;SM(PPM): altern. values or methods;;;;EU(PPM): altern. values or methods;;;;GD(PPM);TB(PPM): altern. values or methods;;;;DY(PPM);HO(PPM);ER(PPM);TM(PPM);YB(PPM): altern. values or methods;;;;LU(PPM);HF(PPM): altern. values or methods;;;;TA(PPM);W(PPM);RE(PPB): altern. values or methods;;;;RE(PPT);OS(PPB): altern. values or methods;;;;OS(PPT);IR(PPB);PT(PPB);AU(PPB);HG(PPB);TL(PPM);PB(PPM): altern. values or methods;;;;PB210_ACT(DPM/G);TH(PPM): altern. values or methods;;;;TH(PPB);U(PPM): altern. values or methods;;;;U(PPB);CO2(PPM);H2O(PPM);ND143_ND144;ND148_ND144;SM147_ND144;SR87_SR86;RB87_SR86;PB206_PB204: altern. values or methods;;;;PB206_PB207;PB206_PB208;PB207_PB204: altern. values or methods;;;;PB207_PB206;PB208_PB204: altern. values or methods;;;;PB208_PB206;OS187_OS186;OS187_OS188: altern. values or methods;;;;RE187_OS188: altern. values or methods;;;;HF176_HF177;HE3_HE4;HE3_HE4(R/R(A)): altern. values or methods;;;;HE4_HE3: altern. values or methods;;;;;;HE4_HE3(R/R(A)): altern. values or methods;;;;AR38_AR36;AR40_AR36;NE20_NE22;NE21_NE22;XE129_XE132;PB206_U238;PB207_U235;PB210_U238;TH232_U238;U238_PB204;D13C(VS SMOW);D17O(VS VSMOW);D18O(PER MIL);D18O(VS PDB);D18O(VS SMOW);D18O(VS VSMOW);D34S(VS CDT);D44_40CA(VS SRM915A);D56FE(VS IRMM-014);DD(VS SMOW);ALBITE(MOL%);ACMITE(MOL%);ANORTHITE(MOL%);ENSTATITE(MOL%);FAYALITE(MOL%);FORSTERITE(MOL%);FERROSILITE(MOL%);HEMATITE(MOL%);LARNITE(MOL%);ORTHOCLASE(MOL%);PSEUDOBROOKITE(MOL%);TEPHROITE(MOL%);ULVOSPINEL(MOL%);WOLLASTONITE(MOL%);AGE(KA);AGE(MA): altern. values or methods;;;;;;;;AGE_PB207_PB206(MA);AGE_PB207_U235(MA);AGE_PB206_U238(MA);
2002;[11710] NKOUATHIO D. G. (2002);samp. NT19;;MID-AFRICAN RIFT SYSTEM / CAMEROON LINE (CONTINENTAL SECTION) / SOUTHERN CAMEROON LINE / TOMBEL VOLCANIC FIELD;TOMBEL GRABEN;4.55;9.58;4.97;9.85;;;OUTCROP;;;SUBAERIAL;VOLCANIC ROCK;ANKARAMITE;;FLOW;;;EOCENE;;;;;MINERAL / COMPONENT (INCL. GROUNDMASS);PLAGIOCLASE;;MICROCRYST;;;PRIMARY;;;;;;;;51.12;;30.17;;;;0.95;;;;11.49;0.12;;0.38;0.12;;;;0.22;EMP (EPMA);;;3.87;EMP (EPMA);;;;;;;;;;;;;;;;;;;;;;;;;;;;;;;;;;;;;;;;;;;;;;;;;;;;;;;;;;;;;;;;;;;;;;;;;;;;;;;;;;;;;;;;;;;;;;;;;;;;;;;;;;;;;;;;;;;;;;;;;;;;;;;;;;;;;;;;;;;;;;;;;;;;;;;;;;;;;;;;;;;;;;;;;;;;;;;;;;;;;;;;;;;;;;;;;;;;;;;;;;;;;;;;;;;;;;;;;;;;;;;;;;;;;;;;;;;;;;;;;;;;;;;;;;;;;;;;;;;;;;;;;;;;;;;37.35;;61.25;;;;;;;1.4;;;;;;;;;;;;;;;;;
2002;[11710] NKOUATHIO D. G. (2002);samp. NT19;;MID-AFRICAN RIFT SYSTEM / CAMEROON LINE (CONTINENTAL SECTION) / SOUTHERN CAMEROON LINE / TOMBEL VOLCANIC FIELD;TOMBEL GRABEN;4.55;9.58;4.97;9.85;;;OUTCROP;;;SUBAERIAL;VOLCANIC ROCK;ANKARAMITE;;FLOW;;;EOCENE;;;;;MINERAL / COMPONENT (INCL. GROUNDMASS);SPINEL;;MICROCRYST;;;PRIMARY;;;;;;;;;21.69;7;8.13;;;;16.23;;49.77;;3.75;0.55;;;0.04;;;;;;;;;;;;;;;;;;;;;;;;;;;;;;;;;;;;;;;;;;;;;;;;;;;;;;;;;;;;;;;;;;;;;;;;;;;;;;;;;;;;;;;;;;;;;;;;;;;;;;;;;;;;;;;;;;;;;;;;;;;;;;;;;;;;;;;;;;;;;;;;;;;;;;;;;;;;;;;;;;;;;;;;;;;;;;;;;;;;;;;;;;;;;;;;;;;;;;;;;;;;;;;;;;;;;;;;;;;;;;;;;;;;;;;;;;;;;;;;;;;;;;;;;;;;;;;;;;;;;;;;;;;;;;;;;;;;;;;;;;;;;;;;;;;57.8;;;;;;;;;;;;;;
2002;[11710] NKOUATHIO D. G. (2002);samp. NT19;;MID-AFRICAN RIFT SYSTEM / CAMEROON LINE (CONTINENTAL SECTION) / SOUTHERN CAMEROON LINE / TOMBEL VOLCANIC FIELD;TOMBEL GRABEN;4.55;9.58;4.97;9.85;;;OUTCROP;;;SUBAERIAL;VOLCANIC ROCK;ANKARAMITE;;FLOW;;;EOCENE;;;;;MINERAL / COMPONENT (INCL. GROUNDMASS);SPINEL;;MICROPHENOCRYST;;;PRIMARY;;;;;;;;;23.23;4.46;2.16;;;;17.19;;48.22;;2.67;0.63;;;0.06;;;;;;;;;;;;;;;;;;;;;;;;;;;;;;;;;;;;;;;;;;;;;;;;;;;;;;;;;;;;;;;;;;;;;;;;;;;;;;;;;;;;;;;;;;;;;;;;;;;;;;;;;;;;;;;;;;;;;;;;;;;;;;;;;;;;;;;;;;;;;;;;;;;;;;;;;;;;;;;;;;;;;;;;;;;;;;;;;;;;;;;;;;;;;;;;;;;;;;;;;;;;;;;;;;;;;;;;;;;;;;;;;;;;;;;;;;;;;;;;;;;;;;;;;;;;;;;;;;;;;;;;;;;;;;;;;;;;;;;;;;;;;;;;;;;63.8;;;;;;;;;;;;;;
2008;[11847] JACKSON M. G. (2008);samp. OFU-04-03;208123;SAMOAN ISLANDS / MANUA ISLANDS / OFU;;-14.1738;-169.6413;-14.1738;-169.6413;;;OUTCROP;;;SUBAERIAL;VOLCANIC ROCK;ANKARAMITE;;DIKE;0;1000000;QUATERNARY;;;;;WHOLE ROCK;;;;;;;;;;;;;;;;;;;;;;;;;;;;;;;;;;;;;;;;;;;;;;;;;;;;;;;;;;;;;;;;;;;;;;;;;;;;;;;;;;;;;;;;;;;;;;;;;;;;;;;;;;;;;;;;;;;;;;;;;;;;;;;;;;;;;;;;;;;;;;;;;;;;;36.9;ICPMS;;;;;;;;;;;;;;;;29.6;ICPMS;;;;;;;;;;;;;;;8.45;ICPMS;;;;;;;;1.13;ICPMS;;;;;;;;;;;;;;;;2.87;;;;;;;;;;;104.4;;;;;;;;;;;;;;;;;;;;;;;;;;;;;;;;;;;;;;;;;;;;;0.132;MC_ICPMS;;;;;;;;;;;;;;;;;;;;;;;;;;;;;;;;;;;;;;;;;;;;;;;;;;;;;;;;;;;;;;;;;;;;;
2008;[11847] JACKSON M. G. (2008);samp. OFU-04-09;208134;SAMOAN ISLANDS / MANUA ISLANDS / OFU;;-14.27;-169.66;-14.27;-169.66;;;OUTCROP;;;SUBAERIAL;VOLCANIC ROCK;ANKARAMITE;;FLOW;0;1000000;QUATERNARY;;;;;WHOLE ROCK;;;;;;;;;;;;;;;5.36;;;;;;;;;;;;;;;;;;;;;;;;;;;;;;;;;;;;;;;;;;;;;;;;;;;;;;;;;;;;;;;;;;;;;;;;;;;;;;;;;;;;;;;;;;;;;;;;;;;;;;;;;;;;;;;;;;;;;;;;;;;;;;;;;;;;;;40.2;ICPMS;;;;;;;;;;;;;;;;32.8;ICPMS;;;;;;;;;;;;;;;9.56;ICPMS;;;;;;;;1.31;ICPMS;;;;;;;;;;;;;;;;3.09;;;;;;;;;;;;;;;;;;;;;;;;;;;;;;;;;;;;;;;;;;;;;;;;;;;;;;;;;;;;;;;;;;;;;;;;;;;;;;;;;;;;;;;;;;;;;;;;;;;;;;;;;;;;;;;;;;;;;;;;;;;;;;
2008;[11847] JACKSON M. G. (2008);samp. OFU-04-05;208125;SAMOAN ISLANDS / MANUA ISLANDS / OFU;;-14.27;-169.66;-14.27;-169.66;;;OUTCROP;;;SUBAERIAL;VOLCANIC ROCK;ANKARAMITE;;DIKE;0;1000000;QUATERNARY;;;;;WHOLE ROCK;;;;;;;;;;;;;;;4.96;;;;;;;;;;;;;;;;;;;;;;;;;;;;;;;;;;;;;;;;;;;;;;;;;;;;;;;;;;;;;;;;;;;;;;;;;;;;;;;;;;;;;;;;;;;;;;;;;;;;;;;;;;;;;;;;;;;;;;;;;;;;;;;;;;;;;;48.7;ICPMS;;;;;;;;;;;;;;;;38.5;ICPMS;;;;;;;;;;;;;;;10.8;ICPMS;;;;;;;;1.44;ICPMS;;;;;;;;;;;;;;;;3.77;;;;;;;;;;;;;;;;;;;;;;;;;;;;;;;;;;;;;;;;;;;;;;;;;;;;;;;;;;;;;;;;;;;;;;;;;;;;;;;;;;;;;;;;;;;;;;;;;;;;;;;;;;;;;;;;;;;;;;;;;;;;;;
2008;[11847] JACKSON M. G. (2008);samp. OFU-04-08;208133;SAMOAN ISLANDS / MANUA ISLANDS / OFU;;-14.27;-169.66;-14.27;-169.66;;;OUTCROP;;;SUBAERIAL;VOLCANIC ROCK;ANKARAMITE;;DIKE;0;1000000;QUATERNARY;;;;;WHOLE ROCK;;;;;;;;;;;;;;;5.42;;;;;;;;;;;;;;;;;;;;;;;;;;;;;;;;;;;;;;;;;;;;;;;;;;;;;;;;;;;;;;;;;;;;;;;;;;;;;;;;;;;;;;;;;;;;;;;;;;;;;;;;;;;;;;;;;;;;;;;;;;;;;;;;;;;;;;49.4;ICPMS;;;;;;;;;;;;;;;;38.1;ICPMS;;;;;;;;;;;;;;;11;ICPMS;;;;;;;;1.47;ICPMS;;;;;;;;;;;;;;;;3.78;;;;;;;;;;;;;;;;;;;;;;;;;;;;;;;;;;;;;;;;;;;;;;;;;;;;;;;;;;;;;;;;;;;;;;;;;;;;;;;;;;;;;;;;;;;;;;;;;;;;;;;;;;;;;;;;;;;;;;;;;;;;;;
2008;[11847] JACKSON M. G. (2008);samp. OFU-04-15;208141;SAMOAN ISLANDS / MANUA ISLANDS / OFU;;-14.27;-169.66;-14.27;-169.66;;;OUTCROP;;;SUBAERIAL;VOLCANIC ROCK;ANKARAMITE;;BOULDER;0;1000000;QUATERNARY;;;;;WHOLE ROCK;;;;;;;;;;;;;;;4.88;;;;;;;;;;;;;;;;;;;;;;;;;;;;;;;;;;;;;;;;;;;;;;;;;;;;;;;;;;;;;;;;;;;;;;;;;;;;;;;;;;;;;;;;;;;;;;;;;;;;;;;;;;;;;;;;;;;;;;;;;;;;;;;;;;;;;;48.4;ICPMS;;;;;;;;;;;;;;;;34.6;ICPMS;;;;;;;;;;;;;;;9.7;ICPMS;;;;;;;;1.3;ICPMS;;;;;;;;;;;;;;;;3.63;;;;;;;;;;;;;;;;;;;;;;;;;;;;;;;;;;;;;;;;;;;;;;;;;;;;;;;;;;;;;;;;;;;;;;;;;;;;;;;;;;;;;;;;;;;;;;;;;;;;;;;;;;;;;;;;;;;;;;;;;;;;;;
1965;[12515] GRUBB P. L. C. (1965);samp. 1;;CENTRAL ASIAN FOLDBELT - MESOZOIC / MALAYSIA_MESOZOIC / JOHOR(E) / SEGAMAT FLOW;;1;104;1;104;;;OUTCROP;;;SUBAERIAL;VOLCANIC ROCK;ANKARAMITE;;LAVA;;;;;;;;WHOLE ROCK;;;;;;;;;;;;;;47.74;0.97;8.98;;;;;5.56;;5.48;11.96;10.59;0.18;;;;;;3.78;NOT;;;1.31;NOT;;;0.44;;2.38;0.76;0;;;;;;;;;;;;;;;;;;;;;;;;;;;;;;;;;;;;;;;;;;;;;;;;;;;;;;;;;;;;;;;;;;;;;;;;;;;;;;;;;;;;;;;;;;;;;;;;;;;;;;;;;;;;;;;;;;;;;;;;;;;;;;;;;;;;;;;;;;;;;;;;;;;;;;;;;;;;;;;;;;;;;;;;;;;;;;;;;;;;;;;;;;;;;;;;;;;;;;;;;;;;;;;;;;;;;;;;;;;;;;;;;;;;;;;;;;;;;;;;;;;;;;;;;;;;;;;;;;;;;;;;;;;;;;;;;;;;;;;;;;;;;;;;;;
2008;[12562] ZHANG ZHAOCHONG(2008)  [GeoReM [4204] ];samp. LS03-4;;CENTRAL ASIAN FOLDBELT - PALEOZOIC / CHINA - PALEOZOIC / XINJIANG PROVINCE / BEITASHAN FORMATION;LAOSHANKOU SECTION, NORTHERN JUNGGAR TERRANE;46.3;90;46.3;90;;;OUTCROP;;;SUBAERIAL;VOLCANIC ROCK;ANKARAMITE;HIGHLY POPRHYRITIC, GRANULAR GROUNDMASS;;;;DEVONIAN;;;;GREENSCHIST-FACIES METAMORPHISM;WHOLE ROCK;;;;;;;;;;;;;;49.72;0.48;9.84;;;;;5.04;;6.01;10.24;15.46;0.2;;;;;;0.86;XRF;;;1.9;XRF;;;0.24;;;;;;;;;;4.01;;;;;;;;;;;;;;;;;;;;;;;;;;;;;;;;;;;;;;;38.2;ICPMS;;;;;;213;ICPMS;;;888;ICPMS;;;;;53.2;ICPMS;;;;;283;ICPMS;;;;;9.03;ICPMS;;;74.6;ICPMS;;;12.6;ICPMS;;;;;;14.3;ICPMS;;;232;ICPMS;;;9.94;ICPMS;;;24.6;ICPMS;;;1.05;ICPMS;;;;;;;;;;;;162;ICPMS;;;2.8;ICPMS;;;6.89;ICPMS;;;1.08;ICPMS;;;5.34;ICPMS;;;1.73;ICPMS;;;0.6;ICPMS;;;2.02;0.33;ICPMS;;;2.18;0.44;1.29;0.19;1.22;ICPMS;;;0.18;0.77;ICPMS;;;0.07;;;;;;;;;;;;;;;;;6.15;ICPMS;;;;0.3;ICPMS;;;;0.2;ICPMS;;;;;;;;;;;;;;;;;;;;;;;;;;;;;;;;;;;;;;;;;;;;;;;;;;;;;;;;;;;;;;;;;;;;;;;;;;;;;;;;;;;;;;;;;;;;;;;;;;
2008;[12562] ZHANG ZHAOCHONG(2008)  [GeoReM [4204] ];samp. LS03-6;;CENTRAL ASIAN FOLDBELT - PALEOZOIC / CHINA - PALEOZOIC / XINJIANG PROVINCE / BEITASHAN FORMATION;LAOSHANKOU SECTION, NORTHERN JUNGGAR TERRANE;46.3;90;46.3;90;;;OUTCROP;;;SUBAERIAL;VOLCANIC ROCK;ANKARAMITE;HIGHLY POPRHYRITIC, GRANULAR GROUNDMASS;;;;DEVONIAN;;;;GREENSCHIST-FACIES METAMORPHISM;WHOLE ROCK;;;;;;;;;;;;;;49.65;0.49;10.25;;;;;5.06;;5.64;9.86;15.74;0.19;;;;;;1.23;XRF;;;1.67;XRF;;;0.24;;;;;;;;;;3.91;;;;;;;;;;;;;;;;;;;;;;;;;;;;;;;;;;;;;;;38.3;ICPMS;;;;;;188;ICPMS;;;946;ICPMS;;;;;52.3;ICPMS;;;;;29;ICPMS;;;;;48.3;ICPMS;;;72.7;ICPMS;;;12.5;ICPMS;;;;;;17.5;ICPMS;;;350;ICPMS;;;9.1;ICPMS;;;25.8;ICPMS;;;0.97;ICPMS;;;;;;;;;;;;199;ICPMS;;;4.59;ICPMS;;;10;ICPMS;;;1.37;ICPMS;;;6.22;ICPMS;;;1.8;ICPMS;;;0.58;ICPMS;;;1.93;0.33;ICPMS;;;2.13;0.43;1.24;0.18;1.21;ICPMS;;;0.17;0.79;ICPMS;;;0.1;;;;;;;;;;;;;;;;;6.42;ICPMS;;;;0.71;ICPMS;;;;0.43;ICPMS;;;;;;;;;;;;;;;;;;;;;;;;;;;;;;;;;;;;;;;;;;;;;;;;;;;;;;;;;;;;;;;;;;;;;;;;;;;;;;;;;;;;;;;;;;;;;;;;;;
2008;[12562] ZHANG ZHAOCHONG(2008)  [GeoReM [4204] ];samp. XJ20-6;237800;CENTRAL ASIAN FOLDBELT - PALEOZOIC / CHINA - PALEOZOIC / XINJIANG PROVINCE / BEITASHAN FORMATION;EASTERN JUNGGAR TERRANE;46;90;47;92;;;OUTCROP;;;SUBAERIAL;VOLCANIC ROCK;ANKARAMITE;HIGHLY POPRHYRITIC, GRANULAR GROUNDMASS;;;;DEVONIAN;;;;GREENSCHIST-FACIES METAMORPHISM;WHOLE ROCK;;;;;;;;;;;;;;50.54;0.41;8.96;;;;;3.05;;7.59;9.14;17.54;0.2;;;;;;1.85;XRF;;;0.48;XRF;;;0.24;;;;;;;;;;5.54;;;;;;;;;;;;;;;;;;;;;;;;;;;;;;;;;;;;;;;34.13;ICPMS;;;;;;201.97;ICPMS;;;716.81;ICPMS;;;;;64.26;ICPMS;;;;;3079;ICPMS;;;;;64.48;ICPMS;;;58.25;ICPMS;;;8.38;ICPMS;;;;;;18.58;ICPMS;18.97;TIMS_ID;144.93;ICPMS;154;TIMS_ID;9.99;ICPMS;;;25.35;ICPMS;;;1.51;ICPMS;;;;;;;;;;;;305;ICPMS;;;3.61;ICPMS;;;7.53;ICPMS;;;1.16;ICPMS;;;5.39;ICPMS;5.511;TIMS_ID;1.55;ICPMS;1.498;TIMS_ID;0.47;ICPMS;;;1.64;0.29;ICPMS;;;1.9;0.4;1.16;0.18;1.19;ICPMS;;;0.19;0.728;ICPMS;;;0.084;;;;;;;;;;;;;;;;;2.548;ICPMS;;;;0.711;ICPMS;;;;0.279;ICPMS;;;;;;0.51292;;0.1643;0.705467;0.3564;;;;;;;;;;;;;;;;;;;;;;;;;;;;;;;;;;;;;;;;;;;;;;;;;;;;;;;;;;;;;;;;;;;;;;;;;;;;;;;;;;;;;;;;
2008;[12562] ZHANG ZHAOCHONG(2008)  [GeoReM [4204] ];samp. XJ22-17-1;;CENTRAL ASIAN FOLDBELT - PALEOZOIC / CHINA - PALEOZOIC / XINJIANG PROVINCE / BEITASHAN FORMATION;LAOSHANKOU SECTION, NORTHERN JUNGGAR TERRANE;46.3;90;46.3;90;;;OUTCROP;;;SUBAERIAL;VOLCANIC ROCK;ANKARAMITE;HIGHLY POPRHYRITIC, GRANULAR GROUNDMASS;;;;DEVONIAN;;;;GREENSCHIST-FACIES METAMORPHISM;WHOLE ROCK;;;;;;;;;;;;;;52.02;0.67;11.27;;;;;5.41;;6.42;7.54;12.17;0.23;;;;;;0.42;XRF;;;3.6;XRF;;;0.24;;;;;;;;;;4.85;;;;;;;;;;;;;;;;;;;;;;;;;;;;;;;;;;;;;;;;;;;;;;;;;;;;;;;;;;;;;;;;;;;;;;;;;;;;;;;;;;;;;;;;;;;;;;;;;;;;;;;;;;;;;;;;;;;;;;;;;;;;;;;;;;;;;;;;;;;;;;;;;;;;;;;;;;;;;;;;;;;;;;;;;;;;;;;;;;;;;;;;;;;;;;;;;;;;;;;;;;;;;;;;;;;;;;;;;;;;;;;;;;;;;;;;;;;;;;;;;;;;;;;;;;;;;;;;;;;;;;;;;;;;;;;;;;;;;;;;;;;;
2008;[12562] ZHANG ZHAOCHONG(2008)  [GeoReM [4204] ];samp. XJ23-14;237802;CENTRAL ASIAN FOLDBELT - PALEOZOIC / CHINA - PALEOZOIC / XINJIANG PROVINCE / BEITASHAN FORMATION;EASTERN JUNGGAR TERRANE;46;90;47;92;;;OUTCROP;;;SUBAERIAL;VOLCANIC ROCK;ANKARAMITE;HIGHLY POPRHYRITIC, GRANULAR GROUNDMASS;;;;DEVONIAN;;;;GREENSCHIST-FACIES METAMORPHISM;WHOLE ROCK;;;;;;;;;;;;;;50.66;0.5;9.51;;;;;3.9;;5.82;10.03;16.64;0.21;;;;;;0.84;XRF;;;1.64;XRF;;;0.26;;;;;;;;;;5.45;;;;;;;;;;;;;;;;;;;;;;;;;;;;;;;;;;;;;;;40.85;ICPMS;;;;;;219.42;ICPMS;;;670.01;ICPMS;;;;;60.88;ICPMS;;;;;2549;ICPMS;;;;;128.89;ICPMS;;;65.74;ICPMS;;;9.7;ICPMS;;;;;;11.95;ICPMS;11.55;TIMS_ID;188.03;ICPMS;210.9;TIMS_ID;10.5;ICPMS;;;27.35;ICPMS;;;1.75;ICPMS;;;;;;;;;;;;161;ICPMS;;;3.73;ICPMS;;;8.17;ICPMS;;;1.27;ICPMS;;;6.15;ICPMS;6.257;TIMS_ID;1.77;ICPMS;1.811;TIMS_ID;0.52;ICPMS;;;1.94;0.34;ICPMS;;;2.19;0.46;1.31;0.2;1.3;ICPMS;;;0.2;0.86;ICPMS;;;0.087;;;;;;;;;;;;;;;;;2.49;ICPMS;;;;0.686;ICPMS;;;;0.315;ICPMS;;;;;;0.512942;;0.175;0.704602;0.1584;;;;;;;;;;;;;;;;;;;;;;;;;;;;;;;;;;;;;;;;;;;;;;;;;;;;;;;;;;;;;;;;;;;;;;;;;;;;;;;;;;;;;;;;
2008;[12562] ZHANG ZHAOCHONG(2008)  [GeoReM [4204] ];samp. XJ23-15;;CENTRAL ASIAN FOLDBELT - PALEOZOIC / CHINA - PALEOZOIC / XINJIANG PROVINCE / BEITASHAN FORMATION;LAOSHANKOU SECTION, NORTHERN JUNGGAR TERRANE;46.3;90;46.3;90;;;OUTCROP;;;SUBAERIAL;VOLCANIC ROCK;ANKARAMITE;HIGHLY POPRHYRITIC, GRANULAR GROUNDMASS;;;;DEVONIAN;;;;GREENSCHIST-FACIES METAMORPHISM;WHOLE ROCK;;;;;;;;;;;;;;50.89;0.46;9.92;;;;;3.94;;6.72;9.76;14.75;0.23;;;;;;0.99;XRF;;;2.07;XRF;;;0.25;;;;;;;;;;4.35;;;;;;;;;;;;;;;;;;;;;;;;;;;;;;;;;;;;;;;;;;;;;;;;;;;;;;;;;;;;;;;;;;;;;;;;;;;;;;;;;;;;;;;;;;;;;;;;;;;;;;;;;;;;;;;;;;;;;;;;;;;;;;;;;;;;;;;;;;;;;;;;;;;;;;;;;;;;;;;;;;;;;;;;;;;;;;;;;;;;;;;;;;;;;;;;;;;;;;;;;;;;;;;;;;;;;;;;;;;;;;;;;;;;;;;;;;;;;;;;;;;;;;;;;;;;;;;;;;;;;;;;;;;;;;;;;;;;;;;;;;;;
2008;[12562] ZHANG ZHAOCHONG(2008)  [GeoReM [4204] ];samp. XJ23-17-1;237804;CENTRAL ASIAN FOLDBELT - PALEOZOIC / CHINA - PALEOZOIC / XINJIANG PROVINCE / BEITASHAN FORMATION;EASTERN JUNGGAR TERRANE;46;90;47;92;;;OUTCROP;;;SUBAERIAL;VOLCANIC ROCK;ANKARAMITE;HIGHLY POPRHYRITIC, GRANULAR GROUNDMASS;;;;DEVONIAN;;;;GREENSCHIST-FACIES METAMORPHISM;WHOLE ROCK;;;;;;;;;;;;;;51.74;0.41;8.39;;;;;3.08;;6.57;8.82;18.05;0.21;;;;;;1.27;XRF;;;1.22;XRF;;;0.24;;;;;;;;;;4.97;;;;;;;;;;;;;;;;;;;;;;;;;;;;;;;;;;;;;;;33.71;ICPMS;;;;;;184.69;ICPMS;;;1040.8;ICPMS;;;;;64.43;ICPMS;;;;;4539;ICPMS;;;;;148.34;ICPMS;;;60;ICPMS;;;7.61;ICPMS;;;;;;15.29;ICPMS;13.85;TIMS_ID;164.39;ICPMS;182;TIMS_ID;9.92;ICPMS;;;25.82;ICPMS;;;1.57;ICPMS;;;;;;;;;;;;204;ICPMS;;;5.56;ICPMS;;;10.68;ICPMS;;;1.49;ICPMS;;;6.51;ICPMS;6.646;TIMS_ID;1.72;ICPMS;1.733;TIMS_ID;0.46;ICPMS;;;1.74;0.31;ICPMS;;;1.95;0.39;1.12;0.18;1.18;ICPMS;;;0.19;0.738;ICPMS;;;0.078;;;;;;;;;;;;;;;;;2.124;ICPMS;;;;0.721;ICPMS;;;;0.312;ICPMS;;;;;;0.512888;;0.1577;0.705124;0.2201;;;;;;;;;;;;;;;;;;;;;;;;;;;;;;;;;;;;;;;;;;;;;;;;;;;;;;;;;;;;;;;;;;;;;;;;;;;;;;;;;;;;;;;;
2008;[12562] ZHANG ZHAOCHONG(2008)  [GeoReM [4204] ];samp. XJ23-17;237827;CENTRAL ASIAN FOLDBELT - PALEOZOIC / CHINA - PALEOZOIC / XINJIANG PROVINCE / BEITASHAN FORMATION;EASTERN JUNGGAR TERRANE;46;90;47;92;;;OUTCROP;;;SUBAERIAL;VOLCANIC ROCK;ANKARAMITE;HIGHLY POPRHYRITIC, GRANULAR GROUNDMASS;;;;DEVONIAN;;;;GREENSCHIST-FACIES METAMORPHISM;WHOLE ROCK;;;;;;;;;;;;;;;;;;;;;;;;;;;;;;;;;;;;;;;;;;;;;;;;;;;;;;;;;;;;;;;;;;;;;;;;;;;;;;;;;;;;;;;;;;;;;;;;;;;;;;;;;;;;;;;;;;;;;;;;;;;;;;;;;;;;;1.883;TIMS_ID;;;54.92;TIMS_ID;;;;;;;;;;;;;;;;;;;;;;;;;;;;;;;;;;;;;;;;1.982;TIMS_ID;;;0.7892;TIMS_ID;;;;;;;;;;;;;;;;;;;;;;;;;;;;;;;;;;;;;;;;;;;;;;;;;;;;;;;;;;;0.513078;;0.2407;0.703809;0.0992;;;;;;;;;;;;;;;;;;;;;;;;;;;;;;;;;;;;;;;;;;;;;;;;;;;;;;;;;;;;;;;;;;;;;;;;;;;;;;;;;;;;;;;;
2008;[12562] ZHANG ZHAOCHONG(2008)  [GeoReM [4204] ];samp. LS03-4;;CENTRAL ASIAN FOLDBELT - PALEOZOIC / CHINA - PALEOZOIC / XINJIANG PROVINCE / BEITASHAN FORMATION;LAOSHANKOU SECTION, NORTHERN JUNGGAR TERRANE;46.3;90;46.3;90;;;OUTCROP;;;SUBAERIAL;VOLCANIC ROCK;ANKARAMITE;HIGHLY POPRHYRITIC, GRANULAR GROUNDMASS;;;;DEVONIAN;;;;GREENSCHIST-FACIES METAMORPHISM;MINERAL / COMPONENT (INCL. GROUNDMASS);CLINOPYROXENE;25-CPX1;;;;PRIMARY;;;;;;;;53.05;0.15;1.51;0.31;;;;;4.86;;22.6;16.52;0.14;;;;;;;;;;0.1;EMP (EPMA);;;;;;;;;;;;;;;;;;;;;;;;;;;;;;;;;;;;;;;;;;;;;;;;;;;;;;;;;;;;;;;;;;;;;;;;;;;;;;;;;;;;;;;;;;;;;;;;;;;;;;;;;;;;;;;;;;;;;;;;;;;;;;;;;;;;;;;;;;;;;;;;;;;;;;;;;;;;;;;;;;;;;;;;;;;;;;;;;;;;;;;;;;;;;;;;;;;;;;;;;;;;;;;;;;;;;;;;;;;;;;;;;;;;;;;;;;;;;;;;;;;;;;;;;;;;;;;;;;;;;;;;;;;;;;;;;;46.55;;;7.68;;;;;;;45.77;;;;;;;;;;;;;
2008;[12562] ZHANG ZHAOCHONG(2008)  [GeoReM [4204] ];samp. LS03-4;;CENTRAL ASIAN FOLDBELT - PALEOZOIC / CHINA - PALEOZOIC / XINJIANG PROVINCE / BEITASHAN FORMATION;LAOSHANKOU SECTION, NORTHERN JUNGGAR TERRANE;46.3;90;46.3;90;;;OUTCROP;;;SUBAERIAL;VOLCANIC ROCK;ANKARAMITE;HIGHLY POPRHYRITIC, GRANULAR GROUNDMASS;;;;DEVONIAN;;;;GREENSCHIST-FACIES METAMORPHISM;MINERAL / COMPONENT (INCL. GROUNDMASS);CLINOPYROXENE;25-CPX2;;;;PRIMARY;;;;;;;;54.2;0.09;1.11;0.34;;;;;3.38;;22.38;17.21;0.12;;;;;;;;;;0.15;EMP (EPMA);;;;;;;;;;;;;;;;;;;;;;;;;;;;;;;;;;;;;;;;;;;;;;;;;;;;;;;;;;;;;;;;;;;;;;;;;;;;;;;;;;;;;;;;;;;;;;;;;;;;;;;;;;;;;;;;;;;;;;;;;;;;;;;;;;;;;;;;;;;;;;;;;;;;;;;;;;;;;;;;;;;;;;;;;;;;;;;;;;;;;;;;;;;;;;;;;;;;;;;;;;;;;;;;;;;;;;;;;;;;;;;;;;;;;;;;;;;;;;;;;;;;;;;;;;;;;;;;;;;;;;;;;;;;;;;;;;48.91;;;5.39;;;;;;;45.7;;;;;;;;;;;;;
2008;[12562] ZHANG ZHAOCHONG(2008)  [GeoReM [4204] ];samp. LS03-6;;CENTRAL ASIAN FOLDBELT - PALEOZOIC / CHINA - PALEOZOIC / XINJIANG PROVINCE / BEITASHAN FORMATION;LAOSHANKOU SECTION, NORTHERN JUNGGAR TERRANE;46.3;90;46.3;90;;;OUTCROP;;;SUBAERIAL;VOLCANIC ROCK;ANKARAMITE;HIGHLY POPRHYRITIC, GRANULAR GROUNDMASS;;;;DEVONIAN;;;;GREENSCHIST-FACIES METAMORPHISM;MINERAL / COMPONENT (INCL. GROUNDMASS);CLINOPYROXENE;34-CPX1;;;;PRIMARY;;;;;;;;51.32;0.33;3.12;0.39;;;;;6.18;;22.47;15.57;0.09;;;;;;;;;;0.2;EMP (EPMA);;;;;;;;;;;;;;;;;;;;;;;;;;;;;;;;;;;;;;;;;;;;;;;;;;;;;;;;;;;;;;;;;;;;;;;;;;;;;;;;;;;;;;;;;;;;;;;;;;;;;;;;;;;;;;;;;;;;;;;;;;;;;;;;;;;;;;;;;;;;;;;;;;;;;;;;;;;;;;;;;;;;;;;;;;;;;;;;;;;;;;;;;;;;;;;;;;;;;;;;;;;;;;;;;;;;;;;;;;;;;;;;;;;;;;;;;;;;;;;;;;;;;;;;;;;;;;;;;;;;;;;;;;;;;;;;;;44.25;;;9.85;;;;;;;45.89;;;;;;;;;;;;;