Year;CITATION;SAMPLE NAME;UNIQUE_ID;LOCATION;LOCATION COMMENT;LATITUDE (MIN.);LONGITUDE (MIN.);LATITUDE (MAX.);LONGITUDE (MAX.);ELEVATION (MIN.);ELEVATION (MAX.);SAMPLING TECHNIQUE;DRILLING DEPTH (MIN.);DRILLING DEPTH (MAX.);LAND/SEA (SAMPLING);ROCK TYPE;ROCK NAME;ROCK TEXTURE;SAMPLE COMMENT;AGE (MIN.);AGE (MAX.);GEOLOGICAL AGE;GEOLOGICAL AGE PREFIX;ERUPTION YEAR;ALTERATION;ALTERATION TYPE;TYPE OF MATERIAL;MINERAL / COMPONENT;SPOT (MINERAL);CRYSTAL;RIM / CORE (MINERAL GRAINS);GRAIN SIZE;PRIMARY/SECONDARY;INCLUSION TYPE;SPOT (INCLUSION);MINERAL (INCLUSION);RIM / CORE (INCLUSION);HOSTMINERAL (INCLUSION);HEATING;HEATING TEMPERATURE (?C);SIO2(WT%);TIO2(WT%);AL2O3(WT%);CR2O3(WT%);V2O3(WT%);V2O5(WT%);FE2O3T(WT%);FE2O3(WT%);FEOT(WT%);FEO(WT%);CAO(WT%);MGO(WT%);MNO(WT%);BAO(WT%);SRO(WT%);NIO(WT%);ZNO(WT%);COO(WT%);K2O(WT%);;;;NA2O(WT%);;;;P2O5(WT%);H2O(WT%);H2OP(WT%);H2OM(WT%);CO2(WT%);F(WT%);CL(WT%);CL2(WT%);SO3(WT%);S(WT%);LOI(WT%);O(WT%);SI(WT%);AL(WT%);TI(WT%);FE(WT%);MG(WT%);MN(WT%);CA(WT%);K(WT%): altern. values or methods;;;;NA(WT%);CR(WT%);NI(WT%);HE(CCMSTP/G);HE3(CCMSTP/G);HE4(CCMSTP/G): altern. values or methods;;;;LI(PPM);BE(PPM);B(PPM);F(PPM);NE20(CCMSTP/G);NE22(CCMSTP/G);P(PPM);S(PPM);CL(PPM);AR36(CCMSTP/G);AR40(CCMSTP/G);AR40(MOL/G): altern. values or methods;;;;AR40(PPB);K(PPM);SC(PPM): altern. values or methods;;;;;;TI(PPM);V(PPM): altern. values or methods;;;;CR(PPM): altern. values or methods;;;;MN(PPM);FE(PPM);CO(PPM): altern. values or methods;;;;;;NI(PPM): altern. values or methods;;;;;;CU(PPM): altern. values or methods;;;;ZN(PPM): altern. values or methods;;;;GA(PPM): altern. values or methods;;;;GE(PPM);AS(PPM);KR84(CCMSTP/G);RB(PPM): altern. values or methods;;;;SR(PPM): altern. values or methods;;;;Y(PPM): altern. values or methods;;;;ZR(PPM): altern. values or methods;;;;NB(PPM): altern. values or methods;;;;MO(PPM);RU(PPB);RH(PPB);PD(PPB);IN(PPM);SN(PPM);SB(PPM);XE132(CCMSTP/G);CS(PPM);BA(PPM): altern. values or methods;;;;LA(PPM): altern. values or methods;;;;CE(PPM): altern. values or methods;;;;PR(PPM): altern. values or methods;;;;ND(PPM): altern. values or methods;;;;SM(PPM): altern. values or methods;;;;EU(PPM): altern. values or methods;;;;GD(PPM);TB(PPM): altern. values or methods;;;;DY(PPM);HO(PPM);ER(PPM);TM(PPM);YB(PPM): altern. values or methods;;;;LU(PPM);HF(PPM): altern. values or methods;;;;TA(PPM);W(PPM);RE(PPB): altern. values or methods;;;;RE(PPT);OS(PPB): altern. values or methods;;;;OS(PPT);IR(PPB);PT(PPB);AU(PPB);HG(PPB);TL(PPM);PB(PPM): altern. values or methods;;;;PB210_ACT(DPM/G);TH(PPM): altern. values or methods;;;;TH(PPB);U(PPM): altern. values or methods;;;;U(PPB);CO2(PPM);H2O(PPM);ND143_ND144;ND148_ND144;SM147_ND144;SR87_SR86;RB87_SR86;PB206_PB204: altern. values or methods;;;;PB206_PB207;PB206_PB208;PB207_PB204: altern. values or methods;;;;PB207_PB206;PB208_PB204: altern. values or methods;;;;PB208_PB206;OS187_OS186;OS187_OS188: altern. values or methods;;;;RE187_OS188: altern. values or methods;;;;HF176_HF177;HE3_HE4;HE3_HE4(R/R(A)): altern. values or methods;;;;HE4_HE3: altern. values or methods;;;;;;HE4_HE3(R/R(A)): altern. values or methods;;;;AR38_AR36;AR40_AR36;NE20_NE22;NE21_NE22;XE129_XE132;PB206_U238;PB207_U235;PB210_U238;TH232_U238;U238_PB204;D13C(VS SMOW);D17O(VS VSMOW);D18O(PER MIL);D18O(VS PDB);D18O(VS SMOW);D18O(VS VSMOW);D34S(VS CDT);D44_40CA(VS SRM915A);D56FE(VS IRMM-014);DD(VS SMOW);ALBITE(MOL%);ACMITE(MOL%);ANORTHITE(MOL%);ENSTATITE(MOL%);FAYALITE(MOL%);FORSTERITE(MOL%);FERROSILITE(MOL%);HEMATITE(MOL%);LARNITE(MOL%);ORTHOCLASE(MOL%);PSEUDOBROOKITE(MOL%);TEPHROITE(MOL%);ULVOSPINEL(MOL%);WOLLASTONITE(MOL%);AGE(KA);AGE(MA): altern. values or methods;;;;;;;;AGE_PB207_PB206(MA);AGE_PB207_U235(MA);AGE_PB206_U238(MA);
2006;[9563] KOHUT E. J. (2006);samp. D14-1;;IZU-BONIN-MARIANA ARC / CHAIFE SEAMOUNT / DREDGE D14;SOUTHERN SEAMOUNT PROVINCE;14.6617;145.0003;14.6617;145.0003;-1860;-2188;DREDGE;;;SUBAQUATIC;VOLCANIC ROCK;ANKARAMITE;;LAVA;;;;;;;;MINERAL / COMPONENT (INCL. GROUNDMASS);CLINOPYROXENE;13;PHENOCRYST;CORE;;PRIMARY;;;;;;;;51.74;0.13;1.45;0.56;;;;;3.4;;21.42;18.49;0.08;;;;;;;;;;0.1;EMP (EPMA);;;;;;;;;;;;;;;;;;;;;;;;;;;;;;;;;;;;;;;;;;;;;;;;;;;;;;;;;;;;;;;;;;;;;;;;;;;;;;;;;;;;;;;;;;;;;;;;;;;;;;;;;;;;;;;;;;;;;;;;;;;;;;;;;;;;;;;;;;;;;;;;;;;;;;;;;;;;;;;;;;;;;;;;;;;;;;;;;;;;;;;;;;;;;;;;;;;;;;;;;;;;;;;;;;;;;;;;;;;;;;;;;;;;;;;;;;;;;;;;;;;;;;;;;;;;;;;;;;;;;;;;;;;;;;;;;;51.7;;;5.3;;;;;;;43;;;;;;;;;;;;;
2006;[9563] KOHUT E. J. (2006);samp. D14-1;;IZU-BONIN-MARIANA ARC / CHAIFE SEAMOUNT / DREDGE D14;SOUTHERN SEAMOUNT PROVINCE;14.6617;145.0003;14.6617;145.0003;-1860;-2188;DREDGE;;;SUBAQUATIC;VOLCANIC ROCK;ANKARAMITE;;LAVA;;;;;;;;MINERAL / COMPONENT (INCL. GROUNDMASS);CLINOPYROXENE;14;GROUNDMASS;;;PRIMARY;;;;;;;;51.06;0.19;2.22;0.88;;;;;3.49;;21.73;17.09;0.07;;;;;;;;;;0.13;EMP (EPMA);;;;;;;;;;;;;;;;;;;;;;;;;;;;;;;;;;;;;;;;;;;;;;;;;;;;;;;;;;;;;;;;;;;;;;;;;;;;;;;;;;;;;;;;;;;;;;;;;;;;;;;;;;;;;;;;;;;;;;;;;;;;;;;;;;;;;;;;;;;;;;;;;;;;;;;;;;;;;;;;;;;;;;;;;;;;;;;;;;;;;;;;;;;;;;;;;;;;;;;;;;;;;;;;;;;;;;;;;;;;;;;;;;;;;;;;;;;;;;;;;;;;;;;;;;;;;;;;;;;;;;;;;;;;;;;;;;49.3;;;5.6;;;;;;;45.1;;;;;;;;;;;;;
1970;[9638] DAWSON J. B. (1970);samp. BD780;172699;EAST AFRICAN RIFT / KENYA RIFT (EASTERN EAST AFRICAN RIFT) / SOUTHERN KENYA RIFT / LASHAINE;;-3;37.3;-3;37.3;;;OUTCROP;;;SUBAERIAL;VOLCANIC ROCK;ANKARAMITE;;;;;;;;;;WHOLE ROCK;;;;;;;;;;;;;;39.44;2.37;5.84;0.11;;;;9.21;;4.59;12.24;17.67;0.17;;;;;;0.99;NOT;;;1.97;NOT;;;0.81;;0.8;2.26;1.41;;;;;;;;;;;;;;;;;;;;;;;;;;;;;;;;;;;;;;;;;;;;;;;;;;;;;;;;;;;;;;;;;;;;;;;;;;;;;;;;;;;;;;;;;;;;;;;;;;;;;;;;;;;;;;;;;;;;;;;;;;;;;;;;;;;;;;;;;;;;;;;;;;;;;;;;;;;;;;;;;;;;;;;;;;;;;;;;;;;;;;;;;;;;;;;;;;;;;;;;;;;;;;;;;;;;;;;;;;;;;;;;;;;;;;;;;;;;;;;;;;;;;;;;;;;;;;;;;;;;;;;;;;;;;;;;;;;;;;;;;;;;;;;;;;
1989;[9652] CHEMINEE J.-L. (1989);samp. DR1 P3-3;;SOCIETY ISLANDS / MEHETIA;SE SIDE OF MEHETIA;-17.92;-148.03;-17.92;-148.03;-2400;-3000;DREDGE;;;SUBAQUATIC;VOLCANIC ROCK;ANKARAMITE;CRYSTALLINE, HIGHLY VESICULAR;;;;;;;;;WHOLE ROCK;;;;;;;;;;;;;;45.4;3.89;13.75;;;;;4.06;;7.77;9.94;7.33;0.17;;;;;;1.95;NOT;;;3.44;NOT;;;0.68;;;;;;;;;;;;;;;;;;;;;;;;;;;;;;;;;;;;;;;;;;;;;;;;;;;;;;;;;;;;;;;;;;;;;;;;;;;;;;;;;;;;;;;;;;;;;;;;;;;;;;;;;;;;;;;;;;;;;;;;;;;;;;50.17;NOT;;;113;NOT;;;;;;;59;NOT;;;12.17;NOT;;;3.7;NOT;;;10.61;;;;;7.34;;2.98;;2.12;NOT;;;;;;;;;;;;;;;;;;;;;;;;;;;;;;;;;;;;;;;;;;;;;;;;;;;;;;;;;;;;;;;;;;;;;;;;;;;;;;;;;;;;;;;;;;;;;;;;;;;;;;;;;;;;;;;;;;;;;;;;;;;;;;;;;;;;;;
1989;[9652] CHEMINEE J.-L. (1989);samp. MEH;;SOCIETY ISLANDS / MEHETIA;SE SIDE OF MEHETIA;-17.92;-148.03;-17.92;-148.03;-2400;-3000;DREDGE;;;SUBAQUATIC;VOLCANIC ROCK;ANKARAMITE;CRYSTALLINE, HIGHLY VESICULAR;;;;;;;;;WHOLE ROCK;;;;;;;;;;;;;;44.07;3.07;9.9;;;;;2.97;;10.49;10.18;15.46;0.18;;;;;;1.06;NOT;;;2.21;NOT;;;0.44;;;;;;;;;;;;;;;;;;;;;;;;;;;;;;;;;;;;;;;;;;;;;;;;;;;;;;;;;;;;;;;;;;;;;;;;;;;;;;;;;;;;;;;;;;;;;;;;;;;;;;;;;;;;;;;;;;;;;;;;;;;;;;;;;;;;;;;;;;;;;;;;;;;;;;;;;;;;;;;;;;;;;;;;;;;;;;;;;;;;;;;;;;;;;;;;;;;;;;;;;;;;;;;;;;;;;;;;;;;;;;;;;;;;;;;;;;;;;;;;;;;;;;;;;;;;;;;;;;;;;;;;;;;;;;;;;;;;;;;;;;;;;;;;;;;;;;
1989;[9652] CHEMINEE J.-L. (1989);samp. DR2-1;;SOCIETY ISLANDS / TEAHITIA / DREDGE 2;TOP PF SOUTH EDGE OF THE CALDERA OF A SMALL VOLCANO NW OF TEAHITIA;-17.6;-148.9;-17.6;-148.9;-3000;-3500;DREDGE;;;SUBAQUATIC;VOLCANIC ROCK;ANKARAMITE;CRYSTALLINE, HIGHLY VESICULAR;;;;;;;;;WHOLE ROCK;;;;;;;;;;;;;;44.05;3.35;11.16;;;;;3.37;;8.86;9.92;12.14;0.19;;;;;;1.51;NOT;;;2.94;NOT;;;0.59;;;;;;;;;;;;;;;;;;;;;;;;;;;;;;;;;;;;;;;;;;;;;;;;;;;;;;;;;;;;;;;;;;;;;;;;;;;;;;;;;;;;;;;;;;;;;;;;;;;;;;;;;;;;;;;;;;;;;;;;;;;;;;;;;;86.36;NOT;;;;;;;47.28;NOT;;;9.96;NOT;;;3.04;NOT;;;8.68;;;;;5.93;;2.33;;1.56;NOT;;;;;;;;;;;;;;;;;;;;;;;;;;;;;;;;;;;;;;;;;;;;;;;;;;;;;;;;;;;;;;;;;;;;;;;;;;;;;;;;;;;;;;;;;;;;;;;;;;;;;;;;;;;;;;;;;;;;;;;;;;;;;;;;;;;;;;
1989;[9652] CHEMINEE J.-L. (1989);samp. DR1 P1-1;;SOCIETY ISLANDS / MEHETIA;SE SIDE OF MEHETIA;-17.92;-148.03;-17.92;-148.03;-2400;-3000;DREDGE;;;SUBAQUATIC;VOLCANIC ROCK;ANKARAMITE;CRYSTALLINE, HIGHLY VESICULAR;;;;;;;;;VOLCANIC GLASS;;;;;;;;;;;;;;45.3;3.81;13.35;;;;;;11.12;;11.87;7.13;0.17;;;;;;1.8;EMP (EPMA);;;3.21;EMP (EPMA);;;;;;;;;;;;;;;;;;;;;;;;;;;;;;;;;;;;;;;;;;;;;;;;;;;;;;;;;;;;;;;;;;;;;;;;;;;;;;;;;;;;;;;;;;;;;;;;;;;;;;;;;;;;;;;;;;;;;;;;;;;;;;;;;;;;;;;;;;;;;;;;;;;;;;;;;;;;;;;;;;;;;;;;;;;;;;;;;;;;;;;;;;;;;;;;;;;;;;;;;;;;;;;;;;;;;;;;;;;;;;;;;;;;;;;;;;;;;;;;;;;;;;;;;;;;;;;;;;;;;;;;;;;;;;;;;;;;;;;;;;;;;;;;;;;;;;;;;
1989;[9652] CHEMINEE J.-L. (1989);samp. DR1 P1-3;;SOCIETY ISLANDS / MEHETIA;SE SIDE OF MEHETIA;-17.92;-148.03;-17.92;-148.03;-2400;-3000;DREDGE;;;SUBAQUATIC;VOLCANIC ROCK;ANKARAMITE;CRYSTALLINE, HIGHLY VESICULAR;;;;;;;;;VOLCANIC GLASS;;;;;;;;;;;;;;46.8;4.29;15.24;;;;;;10.94;;10.92;5.55;0.19;;;;;;2.04;EMP (EPMA);;;2.27;EMP (EPMA);;;;;;;;;;;;;;;;;;;;;;;;;;;;;;;;;;;;;;;;;;;;;;;;;;;;;;;;;;;;;;;;;;;;;;;;;;;;;;;;;;;;;;;;;;;;;;;;;;;;;;;;;;;;;;;;;;;;;;;;;;;;;;;;;;;;;;;;;;;;;;;;;;;;;;;;;;;;;;;;;;;;;;;;;;;;;;;;;;;;;;;;;;;;;;;;;;;;;;;;;;;;;;;;;;;;;;;;;;;;;;;;;;;;;;;;;;;;;;;;;;;;;;;;;;;;;;;;;;;;;;;;;;;;;;;;;;;;;;;;;;;;;;;;;;;;;;;;;
1989;[9652] CHEMINEE J.-L. (1989);samp. DR1 2-4;;SOCIETY ISLANDS / MEHETIA;SE SIDE OF MEHETIA;-17.92;-148.03;-17.92;-148.03;-2400;-3000;DREDGE;;;SUBAQUATIC;VOLCANIC ROCK;ANKARAMITE;CRYSTALLINE, HIGHLY VESICULAR;;;;;;;;;VOLCANIC GLASS;;;;;;;;;;;;;;45.33;4.14;14.57;;;;;;11.33;;10.69;5.69;0.07;;;;;;2.03;EMP (EPMA);;;3.39;EMP (EPMA);;;;;;;;;;;;;;;;;;;;;;;;;;;;;;;;;;;;;;;;;;;;;;;;;;;;;;;;;;;;;;;;;;;;;;;;;;;;;;;;;;;;;;;;;;;;;;;;;;;;;;;;;;;;;;;;;;;;;;;;;;;;;;;;;;;;;;;;;;;;;;;;;;;;;;;;;;;;;;;;;;;;;;;;;;;;;;;;;;;;;;;;;;;;;;;;;;;;;;;;;;;;;;;;;;;;;;;;;;;;;;;;;;;;;;;;;;;;;;;;;;;;;;;;;;;;;;;;;;;;;;;;;;;;;;;;;;;;;;;;;;;;;;;;;;;;;;;;;
1989;[9652] CHEMINEE J.-L. (1989);samp. DR1 P1-1;;SOCIETY ISLANDS / MEHETIA;SE SIDE OF MEHETIA;-17.92;-148.03;-17.92;-148.03;-2400;-3000;DREDGE;;;SUBAQUATIC;VOLCANIC ROCK;ANKARAMITE;CRYSTALLINE, HIGHLY VESICULAR;;;;;;;;;MINERAL / COMPONENT (INCL. GROUNDMASS);OLIVINE;;;;;PRIMARY;;;;;;;;40.6;;;;;;;;14.52;;0.36;46.6;0.22;;;;;;;;;;;;;;;;;;;;;;;;;;;;;;;;;;;;;;;;;;;;;;;;;;;;;;;;;;;;;;;;;;;;;;;;;;;;;;;;;;;;;;;;;;;;;;;;;;;;;;;;;;;;;;;;;;;;;;;;;;;;;;;;;;;;;;;;;;;;;;;;;;;;;;;;;;;;;;;;;;;;;;;;;;;;;;;;;;;;;;;;;;;;;;;;;;;;;;;;;;;;;;;;;;;;;;;;;;;;;;;;;;;;;;;;;;;;;;;;;;;;;;;;;;;;;;;;;;;;;;;;;;;;;;;;;;;;;;;;;;;;;;;85;;;;;;;;;;;;;;;;;;;;;
1989;[9652] CHEMINEE J.-L. (1989);samp. DR1 P3-3;;SOCIETY ISLANDS / MEHETIA;SE SIDE OF MEHETIA;-17.92;-148.03;-17.92;-148.03;-2400;-3000;DREDGE;;;SUBAQUATIC;VOLCANIC ROCK;ANKARAMITE;CRYSTALLINE, HIGHLY VESICULAR;;;;;;;;;MINERAL / COMPONENT (INCL. GROUNDMASS);OLIVINE;;;;;PRIMARY;;;;;;;;38.75;;;;;;;;14.74;;0.25;46.98;0.2;;;;;;;;;;;;;;;;;;;;;;;;;;;;;;;;;;;;;;;;;;;;;;;;;;;;;;;;;;;;;;;;;;;;;;;;;;;;;;;;;;;;;;;;;;;;;;;;;;;;;;;;;;;;;;;;;;;;;;;;;;;;;;;;;;;;;;;;;;;;;;;;;;;;;;;;;;;;;;;;;;;;;;;;;;;;;;;;;;;;;;;;;;;;;;;;;;;;;;;;;;;;;;;;;;;;;;;;;;;;;;;;;;;;;;;;;;;;;;;;;;;;;;;;;;;;;;;;;;;;;;;;;;;;;;;;;;;;;;;;;;;;;;;84.84;;;;;;;;;;;;;;;;;;;;;
1989;[9652] CHEMINEE J.-L. (1989);samp. DR1 P1-3;;SOCIETY ISLANDS / MEHETIA;SE SIDE OF MEHETIA;-17.92;-148.03;-17.92;-148.03;-2400;-3000;DREDGE;;;SUBAQUATIC;VOLCANIC ROCK;ANKARAMITE;CRYSTALLINE, HIGHLY VESICULAR;;;;;;;;;MINERAL / COMPONENT (INCL. GROUNDMASS);OLIVINE;;;;;PRIMARY;;;;;;;;39.8;;;;;;;;18.1;;0.26;44.26;0.23;;;;;;;;;;;;;;;;;;;;;;;;;;;;;;;;;;;;;;;;;;;;;;;;;;;;;;;;;;;;;;;;;;;;;;;;;;;;;;;;;;;;;;;;;;;;;;;;;;;;;;;;;;;;;;;;;;;;;;;;;;;;;;;;;;;;;;;;;;;;;;;;;;;;;;;;;;;;;;;;;;;;;;;;;;;;;;;;;;;;;;;;;;;;;;;;;;;;;;;;;;;;;;;;;;;;;;;;;;;;;;;;;;;;;;;;;;;;;;;;;;;;;;;;;;;;;;;;;;;;;;;;;;;;;;;;;;;;;;;;;;;;;;;81.14;;;;;;;;;;;;;;;;;;;;;
1989;[9652] CHEMINEE J.-L. (1989);samp. DR1 2-4;;SOCIETY ISLANDS / MEHETIA;SE SIDE OF MEHETIA;-17.92;-148.03;-17.92;-148.03;-2400;-3000;DREDGE;;;SUBAQUATIC;VOLCANIC ROCK;ANKARAMITE;CRYSTALLINE, HIGHLY VESICULAR;;;;;;;;;MINERAL / COMPONENT (INCL. GROUNDMASS);OLIVINE;;;;;PRIMARY;;;;;;;;39.34;;;;;;;;17.66;;0.3;44.38;0.24;;;;;;;;;;;;;;;;;;;;;;;;;;;;;;;;;;;;;;;;;;;;;;;;;;;;;;;;;;;;;;;;;;;;;;;;;;;;;;;;;;;;;;;;;;;;;;;;;;;;;;;;;;;;;;;;;;;;;;;;;;;;;;;;;;;;;;;;;;;;;;;;;;;;;;;;;;;;;;;;;;;;;;;;;;;;;;;;;;;;;;;;;;;;;;;;;;;;;;;;;;;;;;;;;;;;;;;;;;;;;;;;;;;;;;;;;;;;;;;;;;;;;;;;;;;;;;;;;;;;;;;;;;;;;;;;;;;;;;;;;;;;;;;81.52;;;;;;;;;;;;;;;;;;;;;
1989;[9652] CHEMINEE J.-L. (1989);samp. DR1 P3-3;;SOCIETY ISLANDS / MEHETIA;SE SIDE OF MEHETIA;-17.92;-148.03;-17.92;-148.03;-2400;-3000;DREDGE;;;SUBAQUATIC;VOLCANIC ROCK;ANKARAMITE;CRYSTALLINE, HIGHLY VESICULAR;;;;;;;;;MINERAL / COMPONENT (INCL. GROUNDMASS);CLINOPYROXENE;;PHENOCRYST;;;PRIMARY;;;;;;;;42.67;4.7;8.91;;;;;;9.18;;21.6;11.65;0.14;;;;;;;;;;0.58;EMP (EPMA);;;;;;;;;;;;;;;;;;;;;;;;;;;;;;;;;;;;;;;;;;;;;;;;;;;;;;;;;;;;;;;;;;;;;;;;;;;;;;;;;;;;;;;;;;;;;;;;;;;;;;;;;;;;;;;;;;;;;;;;;;;;;;;;;;;;;;;;;;;;;;;;;;;;;;;;;;;;;;;;;;;;;;;;;;;;;;;;;;;;;;;;;;;;;;;;;;;;;;;;;;;;;;;;;;;;;;;;;;;;;;;;;;;;;;;;;;;;;;;;;;;;;;;;;;;;;;;;;;;;;;;;;;;;;;;;;;35.27;;;16.33;;;;;;;48.4;;;;;;;;;;;;;
1989;[9652] CHEMINEE J.-L. (1989);samp. DR2-6;;SOCIETY ISLANDS / TEAHITIA / DREDGE 2;TOP PF SOUTH EDGE OF THE CALDERA OF A SMALL VOLCANO NW OF TEAHITIA;-17.6;-148.9;-17.6;-148.9;-3000;-3500;DREDGE;;;SUBAQUATIC;VOLCANIC ROCK;ANKARAMITE;CRYSTALLINE, HIGHLY VESICULAR;;;;;;;;;MINERAL / COMPONENT (INCL. GROUNDMASS);PLAGIOCLASE;;PHENOCRYST;;;PRIMARY;;;;;;;;49.32;;31.19;;;;;;0.64;;15.19;0.42;;;;;;;0.07;EMP (EPMA);;;2.65;EMP (EPMA);;;;;;;;;;;;;;;;;;;;;;;;;;;;;;;;;;;;;;;;;;;;;;;;;;;;;;;;;;;;;;;;;;;;;;;;;;;;;;;;;;;;;;;;;;;;;;;;;;;;;;;;;;;;;;;;;;;;;;;;;;;;;;;;;;;;;;;;;;;;;;;;;;;;;;;;;;;;;;;;;;;;;;;;;;;;;;;;;;;;;;;;;;;;;;;;;;;;;;;;;;;;;;;;;;;;;;;;;;;;;;;;;;;;;;;;;;;;;;;;;;;;;;;;;;;;;;;;;;;;;;;;;;;;;;;23.9;;75.65;;;;;;;0.45;;;;;;;;;;;;;;;;;
1974;[9752] CIVETTA L. (1974);samp. B-309;190114;EAST AFRICAN RIFT / ETHIOPIAN RIFT / AFAR DEPRESSION / ASSAB VOLCANIC FIELD;;12.95;42.43;12.95;42.43;;;OUTCROP;;;SUBAERIAL;VOLCANIC ROCK;ANKARAMITE;;;;;;;;;;WHOLE ROCK;;;;;;;;;;;;;;;;;;;;;;;;;;;;;;;;;;;;;;;;;;;;;;;;;;;;;;;;;;;0.8;NOT;0.761;AES;;;;;;;;;;5;;;;;;;;;;;4.67E-13;MS;;;;;;;;;;;;;;;;;;;;;;;;;;;;;;;;;;;;;;;;;;;;;;;;;17;AAS;;;466;AAS;;;;;;;;;;;;;;;;;;;;;;;;352;AAS;;;;;;;;;;;;;;;;;;;;;;;;;;;;;;;;;;;;;;;;;;;;;;;;;;;;;;;;;;;;;;;;;;;4.6;GAMMA;;;;1.3;GAMMA;;;;;;;;;;;;;;;;;;;;;;;;;;;;;;;;;;;;;;;;;;;;;;;;;;;;;;;;;;;;;;;;;;;;;;;;;;;;;;;;;;;;;;;3.5;K-AR;;;;;;;;;;
1991;[9778] LEWIS J. F. (1991);samp. Y-105.7;;CARIBBEAN-COLOMBIAN PLATEAU / DOMINICAN REPUBLIC / DUARTE COMPLEX;EL YUJO, JARABOCAO AREA;19.22;-70.59;19.22;-70.59;;;OUTCROP;;;SUBAERIAL;VOLCANIC ROCK;ANKARAMITE;;;;;;;;;;WHOLE ROCK;;;;;;;;;;;;;;46.07;1.25;8.77;;;;;;11.88;;12.32;16.14;;;;;;;0.07;EMP (EPMA);;;1.61;EMP (EPMA);;;0.14;;;;;;;;;;;;;;;;;;;;;;;;;;;;;;;;;;;;;;;;;;;;;;;;;;;;;;;;;;;;;;;;;;;;;;;;;;;;;;;;;;;;;;;;;;;;;;;;;;;;;;;;;;;;;;;;;;;;;;;;;;;;;;;;;;;;;;;;;;;;;;;;;;;;;;;;;;;;;;;;;;;;;;;;;;;;;;;;;;;;;;;;;;;;;;;;;;;;;;;;;;;;;;;;;;;;;;;;;;;;;;;;;;;;;;;;;;;;;;;;;;;;;;;;;;;;;;;;;;;;;;;;;;;;;;;;;;;;;;;;;;;;;;;;;;;;;;
1987;[9947] STOFFERS P. (1987);samp. 5 DS 1;7668;SOCIETY ISLANDS / TEAHITIA;;-17.6;-148.9;-17.6;-148.9;-1900;-2100;DREDGE;;;SUBAQUATIC;VOLCANIC ROCK;ANKARAMITE;;;;;;;;FRESH;;WHOLE ROCK;;;;;;;;;;;;;;;3.11;;;;;;;;;;;;;;;;;2.83;XRF;;;;;;;;;;;;;;;;;;;;;;;;;;;;;;;;;;;;;;;;;;;;;;;;;;;;;;;;;;;;;;;;;;;178;XRF;;;;;;;;;;;172;XRF;;;;;;;;;;;;;;;;;;;;47;XRF;;;;;;;;;;;;;;;;;;;;;;;;;;;;;;;;;;;;;;;;;;;;;;;;;;;;;;;;;;;;;;;;;;;;;;;;;;;;;;;;;;;;;;;;;;;;;;;;;;;;;;;;;;;;;;;;;;;;;;;;;;;;;;;;;;;;;;;;;;;;;;;;;;;;;;;;;;;;;;;;;;;;;;;;;;;;;;;;;;;;;;;;;;;;;;;;;;;;;;;;
1987;[9947] STOFFERS P. (1987);samp. 9 DS 2;16843;SOCIETY ISLANDS / TEAHITIA / B SERIES;;-17.6;-148.9;-17.6;-148.9;-2360;-2800;DREDGE;;;SUBAQUATIC;VOLCANIC ROCK;ANKARAMITE;;;;;;;;FRESH;;WHOLE ROCK;;;;;;;;;;;;;;;3.41;;;;;;;;;;;;;;;;;2.22;XRF;;;;;;;;;;;;;;;;;;;;;;;;;;;;;;;;;;;;;;;;;;;;;;;;;;;;;;;;;;;;;;;;;;;385;XRF;;;;;;;;;;;167;XRF;;;;;;;;;;;;;;;;;;;;37;XRF;;;;;;;;;;;;;;;;;;;;;;;;;;;;;;;;;;;;;;;;;;;;;;;;;;;;;;;;;;;;;;;;;;;;;;;;;;;;;;;;;;;;;;;;;;;;;;;;;;;;;;;;;;;;;;;;;;;;;;;;;;;;;;;;;;;;;;;;;;;;;;;;;;;;;;;;;;;;;;;;;;;;;;;;;;;;;;;;;;;;;;;;;;;;;;;;;;;;;;;;
1987;[9947] STOFFERS P. (1987);samp. 20 DS 1;7674;SOCIETY ISLANDS / TEAHITIA / B SERIES;;-17.6;-148.9;-17.6;-148.9;;;DREDGE;;;SUBAQUATIC;VOLCANIC ROCK;ANKARAMITE;;;;;;;;FRESH;;WHOLE ROCK;;;;;;;;;;;;;;;2.99;;;;;;;;;;;;;;;;;2.77;XRF;;;;;;;;;;;;;;;;;;;;;;;;;;;;;;;;;;;;;;;;;;;;;;;;;;;;;;;;;;;;;;;;;;;276;XRF;;;;;;;;;;;170;XRF;;;;;;;;;;;;;;;;;;;;48;XRF;;;;;;;;;;;;;;;;;;;;;;;;;;;;;;;;;;;;;;;;;;;;;;;;;;;;;;;;;;;;;;;;;;;;;;;;;;;;;;;;;;;;;;;;;;;;;;;;;;;;;;;;;;;;;;;;;;;;;;;;;;;;;;;;;;;;;;;;;;;;;;;;;;;;;;;;;;;;;;;;;;;;;;;;;;;;;;;;;;;;;;;;;;;;;;;;;;;;;;;;
1987;[9947] STOFFERS P. (1987);samp. 34 DS 1;;SOCIETY ISLANDS / MEHETIA;;-17.92;-148.03;-17.92;-148.03;;;DREDGE;;;SUBAQUATIC;VOLCANIC ROCK;ANKARAMITE;;;;;;;;FRESH;;WHOLE ROCK;;;;;;;;;;;;;;;3.28;;;;;;;;;;;;;;;;;2.17;XRF;;;;;;;;;;;;;;;;;;;;;;;;;;;;;;;;;;;;;;;;;;;;;;;;;;;;;;;;;;;;;;;;;;;319;XRF;;;;;;;;;;;162;XRF;;;;;;;;;;;;;;;;;;;;36;XRF;;;;;;;;;;;;;;;;;;;;;;;;;;;;;;;;;;;;;;;;;;;;;;;;;;;;;;;;;;;;;;;;;;;;;;;;;;;;;;;;;;;;;;;;;;;;;;;;;;;;;;;;;;;;;;;;;;;;;;;;;;;;;;;;;;;;;;;;;;;;;;;;;;;;;;;;;;;;;;;;;;;;;;;;;;;;;;;;;;;;;;;;;;;;;;;;;;;;;;;;
1999;[10040] BIANCHINI G. (1999);samp. I 17;189327;HYBLEAN (IBLEAN) PLATEAU;;37.17;14.92;37.17;14.92;;;OUTCROP;;;SUBAERIAL;VOLCANIC ROCK;ANKARAMITE;;;;;CENOZOIC;;;;;WHOLE ROCK;;;;;;;;;;;;;;;;;;;;;;;;;;;;;;;;;;;;;;;;;;;;;;;;;;;;;;;;;;;;;;;;;;;;;;;;;;;;;;;;;;;;;;;;;;;;;;;;;;;;;;;;;;;;;;;;;;;;;;;;;;;;;;;;;;;;;;;;;;;;;;;;;;;;;;;;;;;;;;;;;;;;;;;;;;;;;;;;;;;;;;;;;;;;;;;;;;;;;;;;;;;;;;;;;;;;;;;;;;;;;;;;;;;;;;;;;;;;;;;;;;0.51298;;;0.70325;;19.91;TIMS;;;;;15.63;TIMS;;;;39.46;TIMS;;;;;;;;;;;;;;;;;;;;;;;;;;;;;;;;;;;;;;;;;;;;;;;;;;;;;;;;;;;;;;;;;;;;;;;;;;;
1999;[10040] BIANCHINI G. (1999);samp. I 18;189328;HYBLEAN (IBLEAN) PLATEAU;;37.17;14.92;37.17;14.92;;;OUTCROP;;;SUBAERIAL;VOLCANIC ROCK;ANKARAMITE;;;;;CENOZOIC;;;;;WHOLE ROCK;;;;;;;;;;;;;;;;;;;;;;;;;;;;;;;;;;;;;;;;;;;;;;;;;;;;;;;;;;;;;;;;;;;;;;;;;;;;;;;;;;;;;;;;;;;;;;;;;;;;;;;;;;;;;;;;;;;;;;;;;;;;;;;;;;;;;;;;;;;;;;;;;;;;;;;;;;;;;;;;;;;;;;;;;;;;;;;;;;;;;;;;;;;;;;;;;;;;;;;;;;;;;;;;;;;;;;;;;;;;;;;;;;;;;;;;;;;;;;;;;;0.513;;;0.70325;;20;TIMS;;;;;15.65;TIMS;;;;39.58;TIMS;;;;;;;;;;;;;;;;;;;;;;;;;;;;;;;;;;;;;;;;;;;;;;;;;;;;;;;;;;;;;;;;;;;;;;;;;;;
1999;[10040] BIANCHINI G. (1999);samp. I 111;189329;HYBLEAN (IBLEAN) PLATEAU;;37.17;14.92;37.17;14.92;;;OUTCROP;;;SUBAERIAL;VOLCANIC ROCK;ANKARAMITE;;;;;CENOZOIC;;;;;WHOLE ROCK;;;;;;;;;;;;;;;;;;;;;;;;;;;;;;;;;;;;;;;;;;;;;;;;;;;;;;;;;;;;;;;;;;;;;;;;;;;;;;;;;;;;;;;;;;;;;;;;;;;;;;;;;;;;;;;;;;;;;;;;;;;;;;;;;;;;;;;;;;;;;;;;;;;;;;;;;;;;;;;;;;;;;;;;;;;;;;;;;;;;;;;;;;;;;;;;;;;;;;;;;;;;;;;;;;;;;;;;;;;;;;;;;;;;;;;;;;;;;;;;;;0.51304;;;0.70308;;19.79;TIMS;;;;;15.63;TIMS;;;;39.34;TIMS;;;;;;;;;;;;;;;;;;;;;;;;;;;;;;;;;;;;;;;;;;;;;;;;;;;;;;;;;;;;;;;;;;;;;;;;;;;
1999;[10040] BIANCHINI G. (1999);samp. I 114;189330;HYBLEAN (IBLEAN) PLATEAU;;37.17;14.92;37.17;14.92;;;OUTCROP;;;SUBAERIAL;VOLCANIC ROCK;ANKARAMITE;;;;;CENOZOIC;;;;;WHOLE ROCK;;;;;;;;;;;;;;;;;;;;;;;;;;;;;;;;;;;;;;;;;;;;;;;;;;;;;;;;;;;;;;;;;;;;;;;;;;;;;;;;;;;;;;;;;;;;;;;;;;;;;;;;;;;;;;;;;;;;;;;;;;;;;;;;;;;;;;;;;;;;;;;;;;;;;;;;;;;;;;;;;;;;;;;;;;;;;;;;;;;;;;;;;;;;;;;;;;;;;;;;;;;;;;;;;;;;;;;;;;;;;;;;;;;;;;;;;;;;;;;;;;0.51299;;;0.70327;;19.71;TIMS;;;;;15.62;TIMS;;;;39.26;TIMS;;;;;;;;;;;;;;;;;;;;;;;;;;;;;;;;;;;;;;;;;;;;;;;;;;;;;;;;;;;;;;;;;;;;;;;;;;;
1988;[10135] SMEDLEY P. L. (1988);samp. A6;393460;EUROPEAN OROGENIC BELT - PALEOZOIC / GREAT BRITAIN / IRELAND;CORRIE, ARRAN;54.17;-8.06;54.17;-8.06;;;OUTCROP;;;SUBAERIAL;VOLCANIC ROCK;ANKARAMITE;;FLOW;320000000;360000000;CARBONIFEROUS;;;;;WHOLE ROCK;;;;;;;;;;;;;;45.58;2.23;14.01;;;;12.73;;;;9.81;9.7;0.2;;;;;;1.21;XRF;;;2.09;XRF;;;0.36;;;;;;;;;;;;;;;;;;;;;;;;;;;;;;;;;;;;;;;;;;;;;;;;;28;XRF;;;;;;294;XRF;;;411;XRF;;;;;;;;;;;208;XRF;;;;;58;XRF;;;94;XRF;;;;;;;;;;30;XRF;;;583;XRF;;;26;XRF;;;201;XRF;;;39;XRF;;;;;;;;;;;;433;XRF;;;32;XRF;;;68;XRF;;;;;;;28;XRF;;;;;;;;;;;;;;;;;;;;;;;;;;;;;;;;;;;;;;;;;;;;;;5;XRF;;;;;;;;;;;;;;;;;;;;;;;;;;;;;;;;;;;;;;;;;;;;;;;;;;;;;;;;;;;;;;;;;;;;;;;;;;;;;;;;;;;;;;;;;;;;;;;;;;;;;;;;;;;;