Year;CITATION;SAMPLE NAME;UNIQUE_ID;LOCATION;LOCATION COMMENT;LATITUDE (MIN.);LONGITUDE (MIN.);LATITUDE (MAX.);LONGITUDE (MAX.);ELEVATION (MIN.);ELEVATION (MAX.);SAMPLING TECHNIQUE;DRILLING DEPTH (MIN.);DRILLING DEPTH (MAX.);LAND/SEA (SAMPLING);ROCK TYPE;ROCK NAME;ROCK TEXTURE;SAMPLE COMMENT;AGE (MIN.);AGE (MAX.);GEOLOGICAL AGE;GEOLOGICAL AGE PREFIX;ERUPTION YEAR;ALTERATION;ALTERATION TYPE;TYPE OF MATERIAL;MINERAL / COMPONENT;SPOT (MINERAL);CRYSTAL;RIM / CORE (MINERAL GRAINS);GRAIN SIZE;PRIMARY/SECONDARY;INCLUSION TYPE;SPOT (INCLUSION);MINERAL (INCLUSION);RIM / CORE (INCLUSION);HOSTMINERAL (INCLUSION);HEATING;HEATING TEMPERATURE (?C);SIO2(WT%);TIO2(WT%);AL2O3(WT%);CR2O3(WT%);V2O3(WT%);V2O5(WT%);FE2O3T(WT%);FE2O3(WT%);FEOT(WT%);FEO(WT%);CAO(WT%);MGO(WT%);MNO(WT%);BAO(WT%);SRO(WT%);NIO(WT%);ZNO(WT%);COO(WT%);K2O(WT%);;;;NA2O(WT%);;;;P2O5(WT%);H2O(WT%);H2OP(WT%);H2OM(WT%);CO2(WT%);F(WT%);CL(WT%);CL2(WT%);SO3(WT%);S(WT%);LOI(WT%);O(WT%);SI(WT%);AL(WT%);TI(WT%);FE(WT%);MG(WT%);MN(WT%);CA(WT%);K(WT%): altern. values or methods;;;;NA(WT%);CR(WT%);NI(WT%);HE(CCMSTP/G);HE3(CCMSTP/G);HE4(CCMSTP/G): altern. values or methods;;;;LI(PPM);BE(PPM);B(PPM);F(PPM);NE20(CCMSTP/G);NE22(CCMSTP/G);P(PPM);S(PPM);CL(PPM);AR36(CCMSTP/G);AR40(CCMSTP/G);AR40(MOL/G): altern. values or methods;;;;AR40(PPB);K(PPM);SC(PPM): altern. values or methods;;;;;;TI(PPM);V(PPM): altern. values or methods;;;;CR(PPM): altern. values or methods;;;;MN(PPM);FE(PPM);CO(PPM): altern. values or methods;;;;;;NI(PPM): altern. values or methods;;;;;;CU(PPM): altern. values or methods;;;;ZN(PPM): altern. values or methods;;;;GA(PPM): altern. values or methods;;;;GE(PPM);AS(PPM);KR84(CCMSTP/G);RB(PPM): altern. values or methods;;;;SR(PPM): altern. values or methods;;;;Y(PPM): altern. values or methods;;;;ZR(PPM): altern. values or methods;;;;NB(PPM): altern. values or methods;;;;MO(PPM);RU(PPB);RH(PPB);PD(PPB);IN(PPM);SN(PPM);SB(PPM);XE132(CCMSTP/G);CS(PPM);BA(PPM): altern. values or methods;;;;LA(PPM): altern. values or methods;;;;CE(PPM): altern. values or methods;;;;PR(PPM): altern. values or methods;;;;ND(PPM): altern. values or methods;;;;SM(PPM): altern. values or methods;;;;EU(PPM): altern. values or methods;;;;GD(PPM);TB(PPM): altern. values or methods;;;;DY(PPM);HO(PPM);ER(PPM);TM(PPM);YB(PPM): altern. values or methods;;;;LU(PPM);HF(PPM): altern. values or methods;;;;TA(PPM);W(PPM);RE(PPB): altern. values or methods;;;;RE(PPT);OS(PPB): altern. values or methods;;;;OS(PPT);IR(PPB);PT(PPB);AU(PPB);HG(PPB);TL(PPM);PB(PPM): altern. values or methods;;;;PB210_ACT(DPM/G);TH(PPM): altern. values or methods;;;;TH(PPB);U(PPM): altern. values or methods;;;;U(PPB);CO2(PPM);H2O(PPM);ND143_ND144;ND148_ND144;SM147_ND144;SR87_SR86;RB87_SR86;PB206_PB204: altern. values or methods;;;;PB206_PB207;PB206_PB208;PB207_PB204: altern. values or methods;;;;PB207_PB206;PB208_PB204: altern. values or methods;;;;PB208_PB206;OS187_OS186;OS187_OS188: altern. values or methods;;;;RE187_OS188: altern. values or methods;;;;HF176_HF177;HE3_HE4;HE3_HE4(R/R(A)): altern. values or methods;;;;HE4_HE3: altern. values or methods;;;;;;HE4_HE3(R/R(A)): altern. values or methods;;;;AR38_AR36;AR40_AR36;NE20_NE22;NE21_NE22;XE129_XE132;PB206_U238;PB207_U235;PB210_U238;TH232_U238;U238_PB204;D13C(VS SMOW);D17O(VS VSMOW);D18O(PER MIL);D18O(VS PDB);D18O(VS SMOW);D18O(VS VSMOW);D34S(VS CDT);D44_40CA(VS SRM915A);D56FE(VS IRMM-014);DD(VS SMOW);ALBITE(MOL%);ACMITE(MOL%);ANORTHITE(MOL%);ENSTATITE(MOL%);FAYALITE(MOL%);FORSTERITE(MOL%);FERROSILITE(MOL%);HEMATITE(MOL%);LARNITE(MOL%);ORTHOCLASE(MOL%);PSEUDOBROOKITE(MOL%);TEPHROITE(MOL%);ULVOSPINEL(MOL%);WOLLASTONITE(MOL%);AGE(KA);AGE(MA): altern. values or methods;;;;;;;;AGE_PB207_PB206(MA);AGE_PB207_U235(MA);AGE_PB206_U238(MA);
2009;[13431] DAY J. M. D. (2009);samp. LP 10;261437;CANARY ISLANDS / LA PALMA / TABURIENTE / SHIELD STAGE / UPPER TABURIENTE SERIES;;28.6;-17.9;28.6;-17.9;;;OUTCROP;;;SUBAERIAL;VOLCANIC ROCK;ANKARAMITE;;;400000;770000;PLEISTOCENE;;;;;MINERAL / COMPONENT (INCL. GROUNDMASS);OLIVINE;;;;;PRIMARY;;;;;;;;;;;;;;;;;;;;;;;;;;;;;;;;;;;;;;;;;;;;;;;;;;;;;;;;;;;;;;;;;;;;;;;;;;;;;;;;;;;;;;;;;;;;;;;;;;;;;;;;;;;;;;;;;;;;;;;;;;;;;;;;;;;;;;;;;;;;;;;;;;;;;;;;;;;;;;;;;;;;;;;;;;;;;;;;;;;;;;;;;;;;;;;;;;;;;;;;;;;;;;;;;;;;;;;;;;;;;;;;;;;;;;;;;;;;;;;;;;;;;;;;;;;;;;;;;;;;;;;;;;;;;;;;;;;;;;;;;;;;;;;;;;;;;;;;;4.9;;;;;;;;;;;;;;;;;;;;;;;;;;;;;;;
2009;[13431] DAY J. M. D. (2009);samp. LPF 96-66;261443;CANARY ISLANDS / LA PALMA / TABURIENTE / SHIELD STAGE / UPPER TABURIENTE SERIES;;28.6;-17.9;28.6;-17.9;;;OUTCROP;;;SUBAERIAL;VOLCANIC ROCK;ANKARAMITE;;;400000;770000;PLEISTOCENE;;;;;MINERAL / COMPONENT (INCL. GROUNDMASS);OLIVINE;;;;;PRIMARY;;;;;;;;;;;;;;;;;;;;;;;;;;;;;;;;;;;;;;;;;;;;;;;;;;;;;;;;;;;;;;;;;;;;;;;;;;;;;;;;;;;;;;;;;;;;;;;;;;;;;;;;;;;;;;;;;;;;;;;;;;;;;;;;;;;;;;;;;;;;;;;;;;;;;;;;;;;;;;;;;;;;;;;;;;;;;;;;;;;;;;;;;;;;;;;;;;;;;;;;;;;;;;;;;;;;;;;;;;;;;;;;;;;;;;;;;;;;;;;;;;;;;;;;;;;;;;;;;;;;;;;;;;;;;;;;;;;;;;;;;;;;;;;;;;;;;;;;;4.83;;;;;;;;;;;;;;;;;;;;;;;;;;;;;;;
2009;[13431] DAY J. M. D. (2009);samp. EH 01;261417;CANARY ISLANDS / EL HIERRO / SHIELD STAGE / PLATFORM-FORMING ERUPTION;;27.8;-18;27.8;-18;;;OUTCROP;;;SUBAERIAL;VOLCANIC ROCK;ANKARAMITE;;;;;HOLOCENE;;;;;WHOLE ROCK;;;;;;;;;;;;;;39.8;5.39;9.21;;;;16.8;;;;10.7;14.2;0.21;;;;;;0.77;XRF;;;1.84;XRF;;;0.47;;;;;;;;;;;;;;;;;;;;;;;;;;;;;;;;;;;;;;;;;;;;;;;;;;;;;;;;;;;;;;;;;;;;;;;;;;;;;;;;;;;;;;;;;;;;;;;;;;;;;;;;;;;;;;;;;;;;;;;;;;;;;;;;;;;;;;;;;;;;;;;;;;;;;;;;;;;;;;;;;;;;;;;;;;0.473;NOT;;;;0.065;TIMS_N;;;;;;;;;;;;;;;;;;;;;;;;;;;;;;;;;;;;;;;;;;;;;;;;0.14579;TIMS_N;;;;;;;;;;;;;;;;;;;;;;;;;;;;;;;;;;;;;;;;;;;;;;;;;;;;;;;;;;;;;;;;;;;;;
2009;[13431] DAY J. M. D. (2009);samp. EH 07;261419;CANARY ISLANDS / EL HIERRO / TINOR UNIT / SHIELD STAGE;;27.8;-18;27.8;-18;;;OUTCROP;;;SUBAERIAL;VOLCANIC ROCK;ANKARAMITE;;;880000;1120000;PLEISTOCENE;;;;;WHOLE ROCK;;;;;;;;;;;;;;43.7;3.3;11.2;;;;13.6;;;;11.1;11.7;0.2;;;;;;1.02;XRF;;;2.14;XRF;;;0.64;;;;;;;;;;;;;;;;;;;;;;;;;;;;;;;;;;;;;;;;;;;;;;;;;;;;;;;;;;;;;;;;;;;;;;;;;;;;;;;;;;;;;;;;;;;;;;;;;;;;;;;;;;;;;;;;;;;;;;;;;;;;;;;;;;;;;;;;;;;;;;;;;;;;;;;;;;;;;;;;;;;;;;;;;;0.275;NOT;;;;0.095;TIMS_N;;;;;;;;;;;;;;;;;;;;;;;;;;;;;;;;;;;;;;;;;;;;;;;;0.16686;TIMS_N;;;;;;;;;;;;;;;;;;;;;;;;;;;;;;;;;;;;;;;;;;;;;;;;;;;;;;;;;;;;;;;;;;;;;
2009;[13431] DAY J. M. D. (2009);samp. EH 10;261421;CANARY ISLANDS / EL HIERRO / CLIFF-FORMING ERUPTION / SHIELD STAGE;;27.8;-18;27.8;-18;;;OUTCROP;;;SUBAERIAL;VOLCANIC ROCK;ANKARAMITE;;;;;QUATERNARY;;;;;WHOLE ROCK;;;;;;;;;;;;;;41.4;5.23;9.35;;;;17.8;;;;10;14.2;0.21;;;;;;0.75;XRF;;;2.23;XRF;;;0.67;;;;;;;;;;;;;;;;;;;;;;;;;;;;;;;;;;;;;;;;;;;;;;;;;;;;;;;;;;;;;;;;;;;;;;;;;;;;;;;;;;;;;;;;;;;;;;;;;;;;;;;;;;;;;;;;;;;;;;;;;;;;;;;;;;;;;;;;;;;;;;;;;;;;;;;;;;;;;;;;;;;;;;;;;;0.188;NOT;;;;0.184;TIMS_N;;;;;;;;;;;;;;;;;;;;;;;;;;;;;;;;;;;;;;;;;;;;;;;;0.14808;TIMS_N;;;;;;;;;;;;;;;;;;;;;;;;;;;;;;;;;;;;;;;;;;;;;;;;;;;;;;;;;;;;;;;;;;;;;
2009;[13431] DAY J. M. D. (2009);samp. EH 13;261424;CANARY ISLANDS / EL HIERRO / CLIFF-FORMING ERUPTION / SHIELD STAGE;;27.8;-18;27.8;-18;;;OUTCROP;;;SUBAERIAL;VOLCANIC ROCK;ANKARAMITE;;;;;QUATERNARY;;;;;WHOLE ROCK;;;;;;;;;;;;;;40.9;5.15;8.92;;;;17.2;;;;10.4;14.2;0.21;;;;;;0.58;XRF;;;2.33;XRF;;;0.51;;;;;;;;;;;;;;;;;;;;;;;;;;;;;;;;;;;;;;;;;;;;;;;;;;;;;;;;;;;;;;;;;;;;;;;;;;;;;;;;;;;;;;;;;;;;;;;;;;;;;;;;;;;;;;;;;;;;;;;;;;;;;;;;;;;;;;;;;;;;;;;;;;;;;;;;;;;;;;;;;;;;;;;;;;0.251;NOT;;;;0.058;TIMS_N;;;;;;;;;;;;;;;;;;;;;;;;;;;;;;;;;;;;;;;;;;;;;;;;0.16438;TIMS_N;;;;;;;;;;;;;;;;;;;;;;;;;;;;;;;;;;;;;;;;;;;;;;;;;;;;;;;;;;;;;;;;;;;;;
2009;[13431] DAY J. M. D. (2009);samp. EH 15;261426;CANARY ISLANDS / EL HIERRO / SHIELD STAGE / UPPER EL GOLFO UNIT;;27.8;-18;27.8;-18;;;OUTCROP;;;SUBAERIAL;VOLCANIC ROCK;ANKARAMITE;;;200000;200000;PLEISTOCENE;;;;;WHOLE ROCK;;;;;;;;;;;;;;42.3;3.02;8.94;;;;15.9;;;;9.21;17.6;0.19;;;;;;0.48;XRF;;;1.72;XRF;;;0.3;;;;;;;;;;;;;;;;;;;;;;;;;;;;;;;;;;;;;;;;;;;;;;;;;;;;;;;;;;;;;;;;;;;;;;;;;;;;;;;;;;;;;;;;;;;;;;;;;;;;;;;;;;;;;;;;;;;;;;;;;;;;;;;;;;;;;;;;;;;;;;;;;;;;;;;;;;;;;;;;;;;;;;;;;;0.121;NOT;;;;0.158;TIMS_N;;;;;;;;;;;;;;;;;;;;;;;;;;;;;;;;;;;;;;;;;;;;;;;;0.15895;TIMS_N;;;;;;;;;;;;;;;;;;;;;;;;;;;;;;;;;;;;;;;;;;;;;;;;;;;;;;;;;;;;;;;;;;;;;
2009;[13431] DAY J. M. D. (2009);samp. EH 18;261429;CANARY ISLANDS / EL HIERRO / SHIELD STAGE / PLATFORM-FORMING ERUPTION;;27.8;-18;27.8;-18;;;OUTCROP;;;SUBAERIAL;VOLCANIC ROCK;ANKARAMITE;;;;;HOLOCENE;;;;;WHOLE ROCK;;;;;;;;;;;;;;42;5.41;11.3;;;;15.3;;;;10.1;10.9;0.21;;;;;;0.98;XRF;;;3.18;XRF;;;0.64;;;;;;;;;;;;;;;;;;;;;;;;;;;;;;;;;;;;;;;;;;;;;;;;;;;;;;;;;;;;;;;;;;;;;;;;;;;;;;;;;;;;;;;;;;;;;;;;;;;;;;;;;;;;;;;;;;;;;;;;;;;;;;;;;;;;;;;;;;;;;;;;;;;;;;;;;;;;;;;;;;;;;;;;;;0.482;NOT;;;;0.099;TIMS_N;;;;;;;;;;;;;;;;;;;;;;;;;;;;;;;;;;;;;;;;;;;;;;;;0.15297;TIMS_N;;;;;;;;;;;;;;;;;;;;;;;;;;;;;;;;;;;;;;;;;;;;;;;;;;;;;;;;;;;;;;;;;;;;;
2009;[13431] DAY J. M. D. (2009);samp. LP 01;261430;CANARY ISLANDS / LA PALMA / GARAFIA / SHIELD STAGE;;27.8;-18;27.8;-18;;;OUTCROP;;;SUBAERIAL;VOLCANIC ROCK;ANKARAMITE;;;1210000;1780000;PLEISTOCENE;;;;;WHOLE ROCK;;;;;;;;;;;;;;44;3.2;10.3;;;;13.6;;;;11.4;13.4;0.2;;;;;;0.78;XRF;;;2.07;XRF;;;0.39;;;;;;;;;;;;;;;;;;;;;;;;;;;;;;;;;;;;;;;;;;;;;;;;;;;;;;;;;;;;;;;;;;;;;;;;;;;;;;;;;;;;;;;;;;;;;;;;;;;;;;;;;;;;;;;;;;;;;;;;;;;;;;;;;;;;;;;;;;;;;;;;;;;;;;;;;;;;;;;;;;;;;;;;;;0.188;NOT;;;;0.143;TIMS_N;;;;;;;;;;;;;;;;;;;;;;;;;;;;;;;;;;;;;;;;;;;;;;;;0.14328;TIMS_N;;;;;;;;;;;;;;;;;;;;;;;;;;;;;;;;;;;;;;;;;;;;;;;;;;;;;;;;;;;;;;;;;;;;;
2009;[13431] DAY J. M. D. (2009);samp. LP 02;261431;CANARY ISLANDS / LA PALMA / GARAFIA / SHIELD STAGE;;27.8;-18;27.8;-18;;;OUTCROP;;;SUBAERIAL;VOLCANIC ROCK;ANKARAMITE;;;1210000;1780000;PLEISTOCENE;;;;;WHOLE ROCK;;;;;;;;;;;;;;44.6;3.65;12.8;;;;13.3;;;;10.6;9.43;0.2;;;;;;1.22;XRF;;;2.96;XRF;;;0.62;;;;;;;;;;;;;;;;;;;;;;;;;;;;;;;;;;;;;;;;;;;;;;;;;;;;;;;;;;;;;;;;;;;;;;;;;;;;;;;;;;;;;;;;;;;;;;;;;;;;;;;;;;;;;;;;;;;;;;;;;;;;;;;;;;;;;;;;;;;;;;;;;;;;;;;;;;;;;;;;;;;;;;;;;;0.478;NOT;;;;0.06;TIMS_N;;;;;;;;;;;;;;;;;;;;;;;;;;;;;;;;;;;;;;;;;;;;;;;;0.14875;TIMS_N;;;;;;;;;;;;;;;;;;;;;;;;;;;;;;;;;;;;;;;;;;;;;;;;;;;;;;;;;;;;;;;;;;;;;
2009;[13431] DAY J. M. D. (2009);samp. LP 04;261433;CANARY ISLANDS / LA PALMA / TABURIENTE / SHIELD STAGE / LOWER TABURIENTE SERIES;;28.6;-17.9;28.6;-17.9;;;OUTCROP;;;SUBAERIAL;VOLCANIC ROCK;ANKARAMITE;;;830000;1120000;PLEISTOCENE;;;;;WHOLE ROCK;;;;;;;;;;;;;;43.5;4.87;14.1;;;;13.6;;;;10.7;7.9;0.21;;;;;;1.34;XRF;;;3.35;XRF;;;0.77;;;;;;;;;;;;;;;;;;;;;;;;;;;;;;;;;;;;;;;;;;;;;;;;;;;;;;;;;;;;;;;;;;;;;;;;;;;;;;;;;;;;;;;;;;;;;;;;;;;;;;;;;;;;;;;;;;;;;;;;;;;;;;;;;;;;;;;;;;;;;;;;;;;;;;;;;;;;;;;;;;;;;;;;;;0.455;NOT;;;;0.032;TIMS_N;;;;;;;;;;;;;;;;;;;;;;;;;;;;;;;;;;;;;;;;;;;;;;;;0.14788;TIMS_N;;;;;;;;;;;;;;;;;;;;;;;;;;;;;;;;;;;;;;;;;;;;;;;;;;;;;;;;;;;;;;;;;;;;;
2009;[13431] DAY J. M. D. (2009);samp. LP 05;261434;CANARY ISLANDS / LA PALMA / TABURIENTE / SHIELD STAGE / LOWER TABURIENTE SERIES;;28.6;-17.9;28.6;-17.9;;;OUTCROP;;;SUBAERIAL;VOLCANIC ROCK;ANKARAMITE;;;830000;1120000;PLEISTOCENE;;;;;WHOLE ROCK;;;;;;;;;;;;;;41.3;3.97;10.7;;;;15.4;;;;11.2;12.2;0.21;;;;;;0.77;XRF;;;2.4;XRF;;;0.56;;;;;;;;;;;;;;;;;;;;;;;;;;;;;;;;;;;;;;;;;;;;;;;;;;;;;;;;;;;;;;;;;;;;;;;;;;;;;;;;;;;;;;;;;;;;;;;;;;;;;;;;;;;;;;;;;;;;;;;;;;;;;;;;;;;;;;;;;;;;;;;;;;;;;;;;;;;;;;;;;;;;;;;;;;0.461;NOT;;;;0.023;TIMS_N;;;;;;;;;;;;;;;;;;;;;;;;;;;;;;;;;;;;;;;;;;;;;;;;0.13783;TIMS_N;;;;;;;;;;;;;;;;;;;;;;;;;;;;;;;;;;;;;;;;;;;;;;;;;;;;;;;;;;;;;;;;;;;;;
2009;[13431] DAY J. M. D. (2009);samp. LP 07;261435;CANARY ISLANDS / LA PALMA / TABURIENTE / SHIELD STAGE / LOWER TABURIENTE SERIES;;28.6;-17.9;28.6;-17.9;;;OUTCROP;;;SUBAERIAL;VOLCANIC ROCK;ANKARAMITE;;;830000;1120000;PLEISTOCENE;;;;;WHOLE ROCK;;;;;;;;;;;;;;42.4;3.84;11.6;;;;14.2;;;;12.5;9.79;0.2;;;;;;1.15;XRF;;;2.75;XRF;;;0.62;;;;;;;;;;;;;;;;;;;;;;;;;;;;;;;;;;;;;;;;;;;;;;;;;;;;;;;;;;;;;;;;;;;;;;;;;;;;;;;;;;;;;;;;;;;;;;;;;;;;;;;;;;;;;;;;;;;;;;;;;;;;;;;;;;;;;;;;;;;;;;;;;;;;;;;;;;;;;;;;;;;;;;;;;;0.377;NOT;;;;0.053;TIMS_N;;;;;;;;;;;;;;;;;;;;;;;;;;;;;;;;;;;;;;;;;;;;;;;;0.14532;TIMS_N;;;;;;;;;;;;;;;;;;;;;;;;;;;;;;;;;;;;;;;;;;;;;;;;;;;;;;;;;;;;;;;;;;;;;
2009;[13431] DAY J. M. D. (2009);samp. LP 10;261437;CANARY ISLANDS / LA PALMA / TABURIENTE / SHIELD STAGE / UPPER TABURIENTE SERIES;;28.6;-17.9;28.6;-17.9;;;OUTCROP;;;SUBAERIAL;VOLCANIC ROCK;ANKARAMITE;;;400000;770000;PLEISTOCENE;;;;;WHOLE ROCK;;;;;;;;;;;;;;43.8;2.97;9.98;;;;14.1;;;;10.5;14.8;0.2;;;;;;0.61;XRF;;;1.68;XRF;;;0.33;;;;;;;;;;;;;;;;;;;;;;;;;;;;;;;;;;;;;;;;;;;;;;;;;;;;;;;;;;;;;;;;;;;;;;;;;;;;;;;;;;;;;;;;;;;;;;;;;;;;;;;;;;;;;;;;;;;;;;;;;;;;;;;;;;;;;;;;;;;;;;;;;;;;;;;;;;;;;;;;;;;;;;;;;;0.044;NOT;;;;0.077;TIMS_N;;;;;;;;;;;;;;;;;;;;;;;;;;;;;;;;;;;;;;;;;;;;;;;;0.14584;TIMS_N;;;;;;;;;;;;;;;;;;;;;;;;;;;;;;;;;;;;;;;;;;;;;;;;;;;;;;;;;;;;;;;;;;;;;
2009;[13431] DAY J. M. D. (2009);samp. LPF 96-66;261443;CANARY ISLANDS / LA PALMA / TABURIENTE / SHIELD STAGE / UPPER TABURIENTE SERIES;;28.6;-17.9;28.6;-17.9;;;OUTCROP;;;SUBAERIAL;VOLCANIC ROCK;ANKARAMITE;;;400000;770000;PLEISTOCENE;;;;;WHOLE ROCK;;;;;;;;;;;;;;44.6;2.52;9.8;;;;13;;;;11.3;15.5;0.18;;;;;;0.65;XRF;;;1.65;XRF;;;0.32;;;;;;;;;;;;;;;;;;;;;;;;;;;;;;;;;;;;;;;;;;;;;;;;;;;;;;;;;;;;;;;;;;;;;;;;;;;;;;;;;;;;;;;;;;;;;;;;;;;;;;;;;;;;;;;;;;;;;;;;;;;;;;;;;;;;;;;;;;;;;;;;;;;;;;;;;;;;;;;;;;;;;;;;;;0.231;NOT;;;;0.209;TIMS_N;;;;;;;;;;;;;;;;;;;;;;;;;;;;;;;;;;;;;;;;;;;;;;;;0.1438;TIMS_N;;;;;;;;;;;;;;;;;;;;;;;;;;;;;;;;;;;;;;;;;;;;;;;;;;;;;;;;;;;;;;;;;;;;;
2009;[13567] ZHANG ZHAOCHONG (2009);samp. XJ20-6;237800;CENTRAL ASIAN FOLDBELT - PALEOZOIC / CHINA - PALEOZOIC / XINJIANG PROVINCE / BEITASHAN FORMATION;EASTERN JUNGGAR TERRANE;46;90;47;92;;;OUTCROP;;;SUBAERIAL;VOLCANIC ROCK;ANKARAMITE;HIGHLY PORPHYRITIC;;;;DEVONIAN;MIDDLE;;;;WHOLE ROCK;;;;;;;;;;;;;;50.54;0.41;8.96;;;;;3.05;;7.59;9.14;17.54;0.2;;;;;;1.85;XRF;;;0.48;XRF;;;0.24;;;;;;;;;;5.54;;;;;;;;;;;;;;;;;;;;;;;;;;;;;;;;;;;;;;;34.1;ICPMS;;;;;;202;ICPMS;;;717;ICPMS;;;;;64.3;ICPMS;;;;;3079;ICPMS;;;;;64.5;ICPMS;;;58.3;ICPMS;;;8.4;ICPMS;;;;;;18.6;ICPMS;18.97;TIMS_ID;145;ICPMS;154;TIMS_ID;9.99;ICPMS;;;25.4;ICPMS;;;1.51;ICPMS;;;;;;;;;;;;305;ICPMS;;;3.61;ICPMS;;;7.53;ICPMS;;;1.16;ICPMS;;;5.39;ICPMS;5.511;TIMS_ID;1.55;ICPMS;1.498;TIMS_ID;0.47;ICPMS;;;1.64;0.29;ICPMS;;;1.9;0.4;1.16;0.18;1.19;ICPMS;;;0.19;0.728;ICPMS;;;0.084;;;;;;;;;;;;;;;;;2.55;ICPMS;;;;0.71;ICPMS;;;;0.28;ICPMS;;;;;;0.51292;;0.1643;0.705467;0.3564;;;;;;;;;;;;;;;;;;;;;;;;;;;;;;;;;;;;;;;;;;;;;;;;;;;;;;;;;;;;;;;;;;;;;;;;;;;;;;;;;;;;;;;;
2009;[13567] ZHANG ZHAOCHONG (2009);samp. XJ23-14;237802;CENTRAL ASIAN FOLDBELT - PALEOZOIC / CHINA - PALEOZOIC / XINJIANG PROVINCE / BEITASHAN FORMATION;EASTERN JUNGGAR TERRANE;46;90;47;92;;;OUTCROP;;;SUBAERIAL;VOLCANIC ROCK;ANKARAMITE;HIGHLY PORPHYRITIC;;;;DEVONIAN;MIDDLE;;;;WHOLE ROCK;;;;;;;;;;;;;;50.66;0.5;9.51;;;;;3.9;;5.82;10.03;16.64;0.21;;;;;;0.84;XRF;;;1.64;XRF;;;0.26;;;;;;;;;;5.45;;;;;;;;;;;;;;;;;;;;;;;;;;;;;;;;;;;;;;;40.9;ICPMS;;;;;;219;ICPMS;;;670;ICPMS;;;;;60.9;ICPMS;;;;;2549;ICPMS;;;;;128.9;ICPMS;;;65.7;ICPMS;;;9.7;ICPMS;;;;;;11.9;ICPMS;11.55;TIMS_ID;188;ICPMS;210.9;TIMS_ID;10.5;ICPMS;;;27.4;ICPMS;;;1.75;ICPMS;;;;;;;;;;;;161;ICPMS;;;3.73;ICPMS;;;8.17;ICPMS;;;1.27;ICPMS;;;6.15;ICPMS;6.257;TIMS_ID;1.77;ICPMS;1.811;TIMS_ID;0.52;ICPMS;;;1.94;0.34;ICPMS;;;2.19;0.46;1.31;0.2;1.3;ICPMS;;;0.2;0.86;ICPMS;;;0.087;;;;;;;;;;;;;;;;;2.49;ICPMS;;;;0.69;ICPMS;;;;0.32;ICPMS;;;;;;0.512942;;0.175;0.704602;0.1584;;;;;;;;;;;;;;;;;;;;;;;;;;;;;;;;;;;;;;;;;;;;;;;;;;;;;;;;;;;;;;;;;;;;;;;;;;;;;;;;;;;;;;;;
2009;[13567] ZHANG ZHAOCHONG (2009);samp. XJ23-17-1;237804;CENTRAL ASIAN FOLDBELT - PALEOZOIC / CHINA - PALEOZOIC / XINJIANG PROVINCE / BEITASHAN FORMATION;EASTERN JUNGGAR TERRANE;46;90;47;92;;;OUTCROP;;;SUBAERIAL;VOLCANIC ROCK;ANKARAMITE;HIGHLY PORPHYRITIC;;;;DEVONIAN;MIDDLE;;;;WHOLE ROCK;;;;;;;;;;;;;;51.74;0.41;8.39;;;;;3.08;;6.57;8.82;18.05;0.21;;;;;;1.27;XRF;;;1.22;XRF;;;0.24;;;;;;;;;;4.97;;;;;;;;;;;;;;;;;;;;;;;;;;;;;;;;;;;;;;;33.7;ICPMS;;;;;;185;ICPMS;;;1041;ICPMS;;;;;64.4;ICPMS;;;;;4539;ICPMS;;;;;148.3;ICPMS;;;60;ICPMS;;;7.6;ICPMS;;;;;;15.3;ICPMS;13.85;TIMS_ID;164;ICPMS;182;TIMS_ID;9.92;ICPMS;;;25.8;ICPMS;;;1.57;ICPMS;;;;;;;;;;;;204;ICPMS;;;5.56;ICPMS;;;10.68;ICPMS;;;1.49;ICPMS;;;6.51;ICPMS;6.646;TIMS_ID;1.72;ICPMS;1.733;TIMS_ID;0.46;ICPMS;;;1.74;0.31;ICPMS;;;1.95;0.39;1.12;0.18;1.18;ICPMS;;;0.19;0.738;ICPMS;;;0.078;;;;;;;;;;;;;;;;;2.12;ICPMS;;;;0.72;ICPMS;;;;0.31;ICPMS;;;;;;0.512888;;0.1577;0.705124;0.2201;;;;;;;;;;;;;;;;;;;;;;;;;;;;;;;;;;;;;;;;;;;;;;;;;;;;;;;;;;;;;;;;;;;;;;;;;;;;;;;;;;;;;;;;
1986;[13573] COLLERSON K. D. (1986);samp. A336-54;;ANTARCTICA / EASTERN ANTARCTICA / VESTFOLD HILLS;;-70;-80;-70;-80;;;OUTCROP;;;SUBAERIAL;VOLCANIC ROCK;ANKARAMITE;;DIKE;;;PROTEROZOIC;;;;;WHOLE ROCK;;;;;;;;;;;;;;43.8;2.36;6.16;;;;;3.35;;9.49;8.88;18.78;0.17;;;;;;1.53;NOT;;;1.54;NOT;;;0.46;;1.4;;2.04;;;;;;;;;;;;;;;;;;;;;;;;;;;;;;;;;;;;;;;;;;;;;;;;;;;;210;NOT;;;1110;NOT;;;;;;;;;;;676;NOT;;;;;70;NOT;;;110;NOT;;;12;NOT;;;;0.5;;40;NOT;;;607;NOT;;;19;NOT;;;211;NOT;;;37;NOT;;;;;;;;;;;;871;NOT;;;41;NOT;;;82;NOT;;;;;;;;;;;;;;;;;;;;;;;;;;;;;;;;;;;;;;;;;;;;;;;;;;;;;;5;NOT;;;;4;NOT;;;;1;NOT;;;;;;;;;;;;;;;;;;;;;;;;;;;;;;;;;;;;;;;;;;;;;;;;;;;;;;;;;;;;;;;;;;;;;;;;;;;;;;;;;;;;;;;;;;;;;;;;;;
2009;[13759] GEORGIEV S. V.(2009)  [GeoReM [4995] ];samp. SG 090;;CARPATHIAN BELT AND PANNONIAN BASIN / SOUTHERN PANNONIAN-EASTERN CARPATHIAN (TISZA-DACIA / SREDNOGORIE ARC;KRUSHEVETS, YAMBOL-BURGAS DEPRESSION;42.2945;27.4999;42.2945;27.4999;;;OUTCROP;;;SUBAERIAL;VOLCANIC ROCK;ANKARAMITE;;;;;CRETACEOUS;UPPER;;;;WHOLE ROCK;;;;;;;;;;;;;;49.8327585057816;0.635226098837016;11.1737312139691;;;;;;9.41904928521444;;13.4959512146356;11.5173781198974;0.177030224266054;;;;;;1.84319704088773;XRF;;;1.61409910360225;XRF;;;0.270752107701023;;;;;;;;0.020827085207771;;2.46616541353383;;;;;;;;;;;;;;;;;;;;;;;;;;;;;;;;;;;;;;;43.8196666666667;ICPMS;;;;;;248.893666666667;ICPMS;;;565.437;ICPMS;;;;;40.1776666666667;ICPMS;;;;;105.935666666667;ICPMS;;;;;;;;;;;;;;;;;;;;34.4363333333333;ICPMS;;;598.114666666667;ICPMS;;;13.127;ICPMS;;;31.3063333333333;ICPMS;;;1.232;ICPMS;;;;;;;;;;;0.168;129.995;ICPMS;;;9.80266666666667;ICPMS;;;20.522;ICPMS;;;2.65733333333333;ICPMS;;;14.0746666666667;ICPMS;;;3.69433333333333;ICPMS;;;0.916333333333333;ICPMS;;;2.6;0.369666666666667;ICPMS;;;2.109;0.491333333333333;1.20166666666667;0.200666666666667;1.00366666666667;ICPMS;;;0.108;0.845;ICPMS;;;;;;;;;;;;;;;;;;;;6.878;ICPMS;;;;2.10066666666667;ICPMS;;;;0.629333333333333;ICPMS;;;;;;;;;0.70421;;18.514;TIMS;;;;;15.581;TIMS;;;;38.463;TIMS;;;;;;;;;;;;;;;;;;;;;;;;;;;;;;;;;;;;;;;;;;;;;;;;;;;;;;;;;;;;;;;;;;;;;;;;;;;
2009;[13759] GEORGIEV S. V.(2009)  [GeoReM [4995] ];samp. SG 097;;CARPATHIAN BELT AND PANNONIAN BASIN / SOUTHERN PANNONIAN-EASTERN CARPATHIAN (TISZA-DACIA / SREDNOGORIE ARC;SE KARNOBAT, YAMBOL-BURGAS DEPRESSION;42.5101;26.8873;42.5101;26.8873;;;OUTCROP;;;SUBAERIAL;VOLCANIC ROCK;ANKARAMITE;;;;;CRETACEOUS;UPPER;;;;WHOLE ROCK;;;;;;;;;;;;;;50.4430793750226;0.777706044160919;11.1116082747923;;;;;;9.90456588022475;;13.5938755116347;8.28842879941363;0.181109626722406;;;;;;3.23866626609479;XRF;;;2.0348199237635;XRF;;;0.415486790716107;;;;;;;;0.0106535074542592;;5.08313191240021;;;;;;;;;;;;;;;;;;;;;;;;;;;;;;;;;;;;;;;35.1605;ICPMS;;;;;;238.218;ICPMS;;;396.671666666667;ICPMS;;;;;37.185;ICPMS;;;;;96.9356666666667;ICPMS;;;;;;;;;;;;;;;;;;;;42.5276666666667;ICPMS;;;695.518666666666;ICPMS;;;14.447;ICPMS;;;53.6406666666667;ICPMS;;;1.95166666666667;ICPMS;;;;;;;;;;;0.222;399.550333333333;ICPMS;;;13.1693333333333;ICPMS;;;28.131;ICPMS;;;3.63066666666667;ICPMS;;;16.769;ICPMS;;;4.17666666666667;ICPMS;;;1.11566666666667;ICPMS;;;3.99566666666667;0.542;ICPMS;;;2.70833333333333;0.454333333333333;0.986333333333333;0.1665;1.29666666666667;ICPMS;;;0.296333333333333;1.325;ICPMS;;;0.2;;;;;;;;;;;;;;;;;4.96166666666667;ICPMS;;;;2.843;ICPMS;;;;0.846;ICPMS;;;;;;;;;0.7042;;18.525;TIMS;;;;;15.601;TIMS;;;;38.367;TIMS;;;;;;;;;;;;;;;;;;;;;;;;;;;;;;;;;;;;;;;;;;;;;;;;;;;;;;;;;;;;;;;;;;;;;;;;;;;