Year;CITATION;SAMPLE NAME;UNIQUE_ID;LOCATION;LOCATION COMMENT;LATITUDE (MIN.);LONGITUDE (MIN.);LATITUDE (MAX.);LONGITUDE (MAX.);ELEVATION (MIN.);ELEVATION (MAX.);SAMPLING TECHNIQUE;DRILLING DEPTH (MIN.);DRILLING DEPTH (MAX.);LAND/SEA (SAMPLING);ROCK TYPE;ROCK NAME;ROCK TEXTURE;SAMPLE COMMENT;AGE (MIN.);AGE (MAX.);GEOLOGICAL AGE;GEOLOGICAL AGE PREFIX;ERUPTION YEAR;ALTERATION;ALTERATION TYPE;TYPE OF MATERIAL;MINERAL / COMPONENT;SPOT (MINERAL);CRYSTAL;RIM / CORE (MINERAL GRAINS);GRAIN SIZE;PRIMARY/SECONDARY;INCLUSION TYPE;SPOT (INCLUSION);MINERAL (INCLUSION);RIM / CORE (INCLUSION);HOSTMINERAL (INCLUSION);HEATING;HEATING TEMPERATURE (?C);SIO2(WT%);TIO2(WT%);AL2O3(WT%);CR2O3(WT%);V2O3(WT%);V2O5(WT%);FE2O3T(WT%);FE2O3(WT%);FEOT(WT%);FEO(WT%);CAO(WT%);MGO(WT%);MNO(WT%);BAO(WT%);SRO(WT%);NIO(WT%);ZNO(WT%);COO(WT%);K2O(WT%);;;;NA2O(WT%);;;;P2O5(WT%);H2O(WT%);H2OP(WT%);H2OM(WT%);CO2(WT%);F(WT%);CL(WT%);CL2(WT%);SO3(WT%);S(WT%);LOI(WT%);O(WT%);SI(WT%);AL(WT%);TI(WT%);FE(WT%);MG(WT%);MN(WT%);CA(WT%);K(WT%): altern. values or methods;;;;NA(WT%);CR(WT%);NI(WT%);HE(CCMSTP/G);HE3(CCMSTP/G);HE4(CCMSTP/G): altern. values or methods;;;;LI(PPM);BE(PPM);B(PPM);F(PPM);NE20(CCMSTP/G);NE22(CCMSTP/G);P(PPM);S(PPM);CL(PPM);AR36(CCMSTP/G);AR40(CCMSTP/G);AR40(MOL/G): altern. values or methods;;;;AR40(PPB);K(PPM);SC(PPM): altern. values or methods;;;;;;TI(PPM);V(PPM): altern. values or methods;;;;CR(PPM): altern. values or methods;;;;MN(PPM);FE(PPM);CO(PPM): altern. values or methods;;;;;;NI(PPM): altern. values or methods;;;;;;CU(PPM): altern. values or methods;;;;ZN(PPM): altern. values or methods;;;;GA(PPM): altern. values or methods;;;;GE(PPM);AS(PPM);KR84(CCMSTP/G);RB(PPM): altern. values or methods;;;;SR(PPM): altern. values or methods;;;;Y(PPM): altern. values or methods;;;;ZR(PPM): altern. values or methods;;;;NB(PPM): altern. values or methods;;;;MO(PPM);RU(PPB);RH(PPB);PD(PPB);IN(PPM);SN(PPM);SB(PPM);XE132(CCMSTP/G);CS(PPM);BA(PPM): altern. values or methods;;;;LA(PPM): altern. values or methods;;;;CE(PPM): altern. values or methods;;;;PR(PPM): altern. values or methods;;;;ND(PPM): altern. values or methods;;;;SM(PPM): altern. values or methods;;;;EU(PPM): altern. values or methods;;;;GD(PPM);TB(PPM): altern. values or methods;;;;DY(PPM);HO(PPM);ER(PPM);TM(PPM);YB(PPM): altern. values or methods;;;;LU(PPM);HF(PPM): altern. values or methods;;;;TA(PPM);W(PPM);RE(PPB): altern. values or methods;;;;RE(PPT);OS(PPB): altern. values or methods;;;;OS(PPT);IR(PPB);PT(PPB);AU(PPB);HG(PPB);TL(PPM);PB(PPM): altern. values or methods;;;;PB210_ACT(DPM/G);TH(PPM): altern. values or methods;;;;TH(PPB);U(PPM): altern. values or methods;;;;U(PPB);CO2(PPM);H2O(PPM);ND143_ND144;ND148_ND144;SM147_ND144;SR87_SR86;RB87_SR86;PB206_PB204: altern. values or methods;;;;PB206_PB207;PB206_PB208;PB207_PB204: altern. values or methods;;;;PB207_PB206;PB208_PB204: altern. values or methods;;;;PB208_PB206;OS187_OS186;OS187_OS188: altern. values or methods;;;;RE187_OS188: altern. values or methods;;;;HF176_HF177;HE3_HE4;HE3_HE4(R/R(A)): altern. values or methods;;;;HE4_HE3: altern. values or methods;;;;;;HE4_HE3(R/R(A)): altern. values or methods;;;;AR38_AR36;AR40_AR36;NE20_NE22;NE21_NE22;XE129_XE132;PB206_U238;PB207_U235;PB210_U238;TH232_U238;U238_PB204;D13C(VS SMOW);D17O(VS VSMOW);D18O(PER MIL);D18O(VS PDB);D18O(VS SMOW);D18O(VS VSMOW);D34S(VS CDT);D44_40CA(VS SRM915A);D56FE(VS IRMM-014);DD(VS SMOW);ALBITE(MOL%);ACMITE(MOL%);ANORTHITE(MOL%);ENSTATITE(MOL%);FAYALITE(MOL%);FORSTERITE(MOL%);FERROSILITE(MOL%);HEMATITE(MOL%);LARNITE(MOL%);ORTHOCLASE(MOL%);PSEUDOBROOKITE(MOL%);TEPHROITE(MOL%);ULVOSPINEL(MOL%);WOLLASTONITE(MOL%);AGE(KA);AGE(MA): altern. values or methods;;;;;;;;AGE_PB207_PB206(MA);AGE_PB207_U235(MA);AGE_PB206_U238(MA);
2000;[6171] MOSSMAN D. J. (2000);samp. 44991;;NEW ZEALAND / SOUTH ISLAND / SOUTHLAND / GREENHILLS COMPLEX;STEEP HEAD;-46.52;168.23;-46.52;168.23;;;OUTCROP;;;SUBAERIAL;VOLCANIC ROCK;ANKARAMITE, HORNBLENDE;;DIKE;;;PERMIAN;;;;;INCLUSION;;;;;;;MINERAL INCLUSION;;AMPHIBOLE;;CLINOPYROXENE;FALSE;;44.58;1.33;12.3;0.11;;;;4.37;;5.58;12.53;15.23;0.12;;;;;;0.13;EMP (EPMA);;;1.97;EMP (EPMA);;;;;;;;;;;;;;;;;;;;;;;;;;;;;;;;;;;;;;;;;;;;;;;;;;;;;;;;;;;;;;;;;;;;;;;;;;;;;;;;;;;;;;;;;;;;;;;;;;;;;;;;;;;;;;;;;;;;;;;;;;;;;;;;;;;;;;;;;;;;;;;;;;;;;;;;;;;;;;;;;;;;;;;;;;;;;;;;;;;;;;;;;;;;;;;;;;;;;;;;;;;;;;;;;;;;;;;;;;;;;;;;;;;;;;;;;;;;;;;;;;;;;;;;;;;;;;;;;;;;;;;;;;;;;;;;;;;;;;;;;;;;;;;;;;;;;;;;;
2000;[6171] MOSSMAN D. J. (2000);samp. 30999;;NEW ZEALAND / SOUTH ISLAND / SOUTHLAND / GREENHILLS COMPLEX;STEEP HEAD;-46.52;168.23;-46.52;168.23;;;OUTCROP;;;SUBAERIAL;VOLCANIC ROCK;ANKARAMITE, HORNBLENDE;;DIKE;;;PERMIAN;;;;;INCLUSION;;;;;;;MINERAL INCLUSION;;AMPHIBOLE;;CLINOPYROXENE;FALSE;;49.4;0.52;7.88;1.43;;;;3.93;;2.08;12.7;18.4;0.06;;;;;;0.13;EMP (EPMA);;;0.92;EMP (EPMA);;;;;;;;;;;;;;;;;;;;;;;;;;;;;;;;;;;;;;;;;;;;;;;;;;;;;;;;;;;;;;;;;;;;;;;;;;;;;;;;;;;;;;;;;;;;;;;;;;;;;;;;;;;;;;;;;;;;;;;;;;;;;;;;;;;;;;;;;;;;;;;;;;;;;;;;;;;;;;;;;;;;;;;;;;;;;;;;;;;;;;;;;;;;;;;;;;;;;;;;;;;;;;;;;;;;;;;;;;;;;;;;;;;;;;;;;;;;;;;;;;;;;;;;;;;;;;;;;;;;;;;;;;;;;;;;;;;;;;;;;;;;;;;;;;;;;;;;;
2000;[6171] MOSSMAN D. J. (2000);samp. 30999;;NEW ZEALAND / SOUTH ISLAND / SOUTHLAND / GREENHILLS COMPLEX;STEEP HEAD;-46.52;168.23;-46.52;168.23;;;OUTCROP;;;SUBAERIAL;VOLCANIC ROCK;ANKARAMITE, HORNBLENDE;;DIKE;;;PERMIAN;;;;;INCLUSION;;;;;;;MINERAL INCLUSION;;AMPHIBOLE;;CLINOPYROXENE;FALSE;;48.2;0.64;9.24;0.98;;;;3.68;;3.45;12.8;17.4;0.09;;;;;;0.02;EMP (EPMA);;;1.19;EMP (EPMA);;;;;;;;;;;;;;;;;;;;;;;;;;;;;;;;;;;;;;;;;;;;;;;;;;;;;;;;;;;;;;;;;;;;;;;;;;;;;;;;;;;;;;;;;;;;;;;;;;;;;;;;;;;;;;;;;;;;;;;;;;;;;;;;;;;;;;;;;;;;;;;;;;;;;;;;;;;;;;;;;;;;;;;;;;;;;;;;;;;;;;;;;;;;;;;;;;;;;;;;;;;;;;;;;;;;;;;;;;;;;;;;;;;;;;;;;;;;;;;;;;;;;;;;;;;;;;;;;;;;;;;;;;;;;;;;;;;;;;;;;;;;;;;;;;;;;;;;;
2000;[6171] MOSSMAN D. J. (2000);samp. 44996;;NEW ZEALAND / SOUTH ISLAND / SOUTHLAND / GREENHILLS COMPLEX;STEEP HEAD;-46.52;168.23;-46.52;168.23;;;OUTCROP;;;SUBAERIAL;VOLCANIC ROCK;ANKARAMITE, HORNBLENDE;;DIKE;;;PERMIAN;;;;;INCLUSION;;;;;;;MINERAL INCLUSION;;AMPHIBOLE;;CLINOPYROXENE;FALSE;;47.89;1.31;9.4;0;;;;3.94;;6.23;12.39;15.68;0;;;;;;0.64;EMP (EPMA);;;0.83;EMP (EPMA);;;;;;;;;;;;;;;;;;;;;;;;;;;;;;;;;;;;;;;;;;;;;;;;;;;;;;;;;;;;;;;;;;;;;;;;;;;;;;;;;;;;;;;;;;;;;;;;;;;;;;;;;;;;;;;;;;;;;;;;;;;;;;;;;;;;;;;;;;;;;;;;;;;;;;;;;;;;;;;;;;;;;;;;;;;;;;;;;;;;;;;;;;;;;;;;;;;;;;;;;;;;;;;;;;;;;;;;;;;;;;;;;;;;;;;;;;;;;;;;;;;;;;;;;;;;;;;;;;;;;;;;;;;;;;;;;;;;;;;;;;;;;;;;;;;;;;;;;
2000;[6171] MOSSMAN D. J. (2000);samp. 44996;;NEW ZEALAND / SOUTH ISLAND / SOUTHLAND / GREENHILLS COMPLEX;STEEP HEAD;-46.52;168.23;-46.52;168.23;;;OUTCROP;;;SUBAERIAL;VOLCANIC ROCK;ANKARAMITE, HORNBLENDE;;DIKE;;;PERMIAN;;;;;INCLUSION;;;;;;;MINERAL INCLUSION;;AMPHIBOLE;;CLINOPYROXENE;FALSE;;48.34;0.26;10.1;0;;;;5.99;;1.7;12.23;17.54;0;;;;;;0.57;EMP (EPMA);;;0.98;EMP (EPMA);;;;;;;;;;;;;;;;;;;;;;;;;;;;;;;;;;;;;;;;;;;;;;;;;;;;;;;;;;;;;;;;;;;;;;;;;;;;;;;;;;;;;;;;;;;;;;;;;;;;;;;;;;;;;;;;;;;;;;;;;;;;;;;;;;;;;;;;;;;;;;;;;;;;;;;;;;;;;;;;;;;;;;;;;;;;;;;;;;;;;;;;;;;;;;;;;;;;;;;;;;;;;;;;;;;;;;;;;;;;;;;;;;;;;;;;;;;;;;;;;;;;;;;;;;;;;;;;;;;;;;;;;;;;;;;;;;;;;;;;;;;;;;;;;;;;;;;;;
2000;[6171] MOSSMAN D. J. (2000);samp. 44996;;NEW ZEALAND / SOUTH ISLAND / SOUTHLAND / GREENHILLS COMPLEX;STEEP HEAD;-46.52;168.23;-46.52;168.23;;;OUTCROP;;;SUBAERIAL;VOLCANIC ROCK;ANKARAMITE, HORNBLENDE;;DIKE;;;PERMIAN;;;;;INCLUSION;;;;;;;MINERAL INCLUSION;;AMPHIBOLE;;CLINOPYROXENE;FALSE;;51.17;0.64;7.19;0.48;;;;2.38;;5.56;12.02;16.86;0.11;;;;;;0.16;EMP (EPMA);;;0.97;EMP (EPMA);;;;;;;;;;;;;;;;;;;;;;;;;;;;;;;;;;;;;;;;;;;;;;;;;;;;;;;;;;;;;;;;;;;;;;;;;;;;;;;;;;;;;;;;;;;;;;;;;;;;;;;;;;;;;;;;;;;;;;;;;;;;;;;;;;;;;;;;;;;;;;;;;;;;;;;;;;;;;;;;;;;;;;;;;;;;;;;;;;;;;;;;;;;;;;;;;;;;;;;;;;;;;;;;;;;;;;;;;;;;;;;;;;;;;;;;;;;;;;;;;;;;;;;;;;;;;;;;;;;;;;;;;;;;;;;;;;;;;;;;;;;;;;;;;;;;;;;;;
2000;[6171] MOSSMAN D. J. (2000);samp. 44991;;NEW ZEALAND / SOUTH ISLAND / SOUTHLAND / GREENHILLS COMPLEX;STEEP HEAD;-46.52;168.23;-46.52;168.23;;;OUTCROP;;;SUBAERIAL;VOLCANIC ROCK;ANKARAMITE, HORNBLENDE;;DIKE;;;PERMIAN;;;;;MINERAL / COMPONENT (INCL. GROUNDMASS);ORTHOPYROXENE;;GROUNDMASS;;;PRIMARY;;;;;;;;57.78;0;0.76;0;;;;;8.14;;0.66;33.01;0;;;;;;;;;;;;;;;;;;;;;;;;;;;;;;;;;;;;;;;;;;;;;;;;;;;;;;;;;;;;;;;;;;;;;;;;;;;;;;;;;;;;;;;;;;;;;;;;;;;;;;;;;;;;;;;;;;;;;;;;;;;;;;;;;;;;;;;;;;;;;;;;;;;;;;;;;;;;;;;;;;;;;;;;;;;;;;;;;;;;;;;;;;;;;;;;;;;;;;;;;;;;;;;;;;;;;;;;;;;;;;;;;;;;;;;;;;;;;;;;;;;;;;;;;;;;;;;;;;;;;;;;;;;;;;;;;;;;;;;;;;;;;;;;;;;;;;;;;;;;;;;;;;;;
2000;[6171] MOSSMAN D. J. (2000);samp. 44991;;NEW ZEALAND / SOUTH ISLAND / SOUTHLAND / GREENHILLS COMPLEX;STEEP HEAD;-46.52;168.23;-46.52;168.23;;;OUTCROP;;;SUBAERIAL;VOLCANIC ROCK;ANKARAMITE, HORNBLENDE;;DIKE;;;PERMIAN;;;;;MINERAL / COMPONENT (INCL. GROUNDMASS);ORTHOPYROXENE;;GROUNDMASS;;;PRIMARY;;;;;;;;56.96;0;0.95;0;;;;;10.41;;0.64;32.04;0;;;;;;;;;;;;;;;;;;;;;;;;;;;;;;;;;;;;;;;;;;;;;;;;;;;;;;;;;;;;;;;;;;;;;;;;;;;;;;;;;;;;;;;;;;;;;;;;;;;;;;;;;;;;;;;;;;;;;;;;;;;;;;;;;;;;;;;;;;;;;;;;;;;;;;;;;;;;;;;;;;;;;;;;;;;;;;;;;;;;;;;;;;;;;;;;;;;;;;;;;;;;;;;;;;;;;;;;;;;;;;;;;;;;;;;;;;;;;;;;;;;;;;;;;;;;;;;;;;;;;;;;;;;;;;;;;;;;;;;;;;;;;;;;;;;;;;;;;;;;;;;;;;;;
2000;[6171] MOSSMAN D. J. (2000);samp. 30999A;;NEW ZEALAND / SOUTH ISLAND / SOUTHLAND / GREENHILLS COMPLEX;;-46.52;168.23;-46.55;168.25;;;OUTCROP;;;SUBAERIAL;VOLCANIC ROCK;ANKARAMITE;;DIKE;;;;;;;;MINERAL / COMPONENT (INCL. GROUNDMASS);ORTHOPYROXENE;;;;;PRIMARY;;;;;;;;55.3;0.05;1.15;0.05;;;;;13.6;;0.67;29.4;0.33;;;;;;;;;;;;;;;;;;;;;;;;;;;;;;;;;;;;;;;;;;;;;;;;;;;;;;;;;;;;;;;;;;;;;;;;;;;;;;;;;;;;;;;;;;;;;;;;;;;;;;;;;;;;;;;;;;;;;;;;;;;;;;;;;;;;;;;;;;;;;;;;;;;;;;;;;;;;;;;;;;;;;;;;;;;;;;;;;;;;;;;;;;;;;;;;;;;;;;;;;;;;;;;;;;;;;;;;;;;;;;;;;;;;;;;;;;;;;;;;;;;;;;;;;;;;;;;;;;;;;;;;;;;;;;;;;;;;;;;;;;;;;;;;;;;;;;;;;;;;;;;;;;;;
2000;[6171] MOSSMAN D. J. (2000);samp. 30999B;;NEW ZEALAND / SOUTH ISLAND / SOUTHLAND / GREENHILLS COMPLEX;;-46.52;168.23;-46.55;168.25;;;OUTCROP;;;SUBAERIAL;VOLCANIC ROCK;ANKARAMITE;;DIKE;;;;;;;;MINERAL / COMPONENT (INCL. GROUNDMASS);ORTHOPYROXENE;;GROUNDMASS;;;PRIMARY;;;;;;;;55.1;0.06;1.02;0.03;;;;;12.8;;0.87;29.5;0.33;;;;;;;;;;;;;;;;;;;;;;;;;;;;;;;;;;;;;;;;;;;;;;;;;;;;;;;;;;;;;;;;;;;;;;;;;;;;;;;;;;;;;;;;;;;;;;;;;;;;;;;;;;;;;;;;;;;;;;;;;;;;;;;;;;;;;;;;;;;;;;;;;;;;;;;;;;;;;;;;;;;;;;;;;;;;;;;;;;;;;;;;;;;;;;;;;;;;;;;;;;;;;;;;;;;;;;;;;;;;;;;;;;;;;;;;;;;;;;;;;;;;;;;;;;;;;;;;;;;;;;;;;;;;;;;;;;;;;;;;;;;;;;;;;;;;;;;;;;;;;;;;;;;;
2000;[6171] MOSSMAN D. J. (2000);samp. 30999B;;NEW ZEALAND / SOUTH ISLAND / SOUTHLAND / GREENHILLS COMPLEX;;-46.52;168.23;-46.55;168.25;;;OUTCROP;;;SUBAERIAL;VOLCANIC ROCK;ANKARAMITE;;DIKE;;;;;;;;MINERAL / COMPONENT (INCL. GROUNDMASS);ORTHOPYROXENE;;;;;PRIMARY;;;;;;;;56.2;0.22;1.17;0;;;;;11.7;;0.67;30.4;0.28;;;;;;;;;;;;;;;;;;;;;;;;;;;;;;;;;;;;;;;;;;;;;;;;;;;;;;;;;;;;;;;;;;;;;;;;;;;;;;;;;;;;;;;;;;;;;;;;;;;;;;;;;;;;;;;;;;;;;;;;;;;;;;;;;;;;;;;;;;;;;;;;;;;;;;;;;;;;;;;;;;;;;;;;;;;;;;;;;;;;;;;;;;;;;;;;;;;;;;;;;;;;;;;;;;;;;;;;;;;;;;;;;;;;;;;;;;;;;;;;;;;;;;;;;;;;;;;;;;;;;;;;;;;;;;;;;;;;;;;;;;;;;;;;;;;;;;;;;;;;;;;;;;;;
2000;[6171] MOSSMAN D. J. (2000);samp. 44996;;NEW ZEALAND / SOUTH ISLAND / SOUTHLAND / GREENHILLS COMPLEX;STEEP HEAD;-46.52;168.23;-46.52;168.23;;;OUTCROP;;;SUBAERIAL;VOLCANIC ROCK;ANKARAMITE, HORNBLENDE;;DIKE;;;PERMIAN;;;;;MINERAL / COMPONENT (INCL. GROUNDMASS);ORTHOPYROXENE;;GROUNDMASS;;;PRIMARY;;;;;;;;55.26;0;1.89;0;;;;;15.57;;0.97;27.03;0;;;;;;;;;;;;;;;;;;;;;;;;;;;;;;;;;;;;;;;;;;;;;;;;;;;;;;;;;;;;;;;;;;;;;;;;;;;;;;;;;;;;;;;;;;;;;;;;;;;;;;;;;;;;;;;;;;;;;;;;;;;;;;;;;;;;;;;;;;;;;;;;;;;;;;;;;;;;;;;;;;;;;;;;;;;;;;;;;;;;;;;;;;;;;;;;;;;;;;;;;;;;;;;;;;;;;;;;;;;;;;;;;;;;;;;;;;;;;;;;;;;;;;;;;;;;;;;;;;;;;;;;;;;;;;;;;;;;;;;;;;;;;;;;;;;;;;;;;;;;;;;;;;;;
2000;[6171] MOSSMAN D. J. (2000);samp. 44996;;NEW ZEALAND / SOUTH ISLAND / SOUTHLAND / GREENHILLS COMPLEX;STEEP HEAD;-46.52;168.23;-46.52;168.23;;;OUTCROP;;;SUBAERIAL;VOLCANIC ROCK;ANKARAMITE, HORNBLENDE;;DIKE;;;PERMIAN;;;;;MINERAL / COMPONENT (INCL. GROUNDMASS);ORTHOPYROXENE;;GROUNDMASS;;;PRIMARY;;;;;;;;55.25;0;1.14;0;;;;;17.37;;1.06;26.03;0;;;;;;;;;;;;;;;;;;;;;;;;;;;;;;;;;;;;;;;;;;;;;;;;;;;;;;;;;;;;;;;;;;;;;;;;;;;;;;;;;;;;;;;;;;;;;;;;;;;;;;;;;;;;;;;;;;;;;;;;;;;;;;;;;;;;;;;;;;;;;;;;;;;;;;;;;;;;;;;;;;;;;;;;;;;;;;;;;;;;;;;;;;;;;;;;;;;;;;;;;;;;;;;;;;;;;;;;;;;;;;;;;;;;;;;;;;;;;;;;;;;;;;;;;;;;;;;;;;;;;;;;;;;;;;;;;;;;;;;;;;;;;;;;;;;;;;;;;;;;;;;;;;;;
2000;[6171] MOSSMAN D. J. (2000);samp. 25853;;NEW ZEALAND / SOUTH ISLAND / SOUTHLAND / GREENHILLS COMPLEX;;-46.52;168.23;-46.55;168.25;;;OUTCROP;;;SUBAERIAL;VOLCANIC ROCK;ANKARAMITE, HORNBLENDE;;DIKE CENTER;;;;;;;;MINERAL / COMPONENT (INCL. GROUNDMASS);AMPHIBOLE;;GROUNDMASS;;;PRIMARY;;;;;;;;50.1;1.03;7.22;;;;;4.93;;4.22;11.4;16.8;0.23;;;;;;0.45;EMP (EPMA);;;1.21;EMP (EPMA);;;;;;;;;;;;;;;;;;;;;;;;;;;;;;;;;;;;;;;;;;;;;;;;;;;;;;;;;;;;;;;;;;;;;;;;;;;;;;;;;;;;;;;;;;;;;;;;;;;;;;;;;;;;;;;;;;;;;;;;;;;;;;;;;;;;;;;;;;;;;;;;;;;;;;;;;;;;;;;;;;;;;;;;;;;;;;;;;;;;;;;;;;;;;;;;;;;;;;;;;;;;;;;;;;;;;;;;;;;;;;;;;;;;;;;;;;;;;;;;;;;;;;;;;;;;;;;;;;;;;;;;;;;;;;;;;;;;;;;;;;;;;;;;;;;;;;;;;
2000;[6171] MOSSMAN D. J. (2000);samp. 25853;;NEW ZEALAND / SOUTH ISLAND / SOUTHLAND / GREENHILLS COMPLEX;;-46.52;168.23;-46.55;168.25;;;OUTCROP;;;SUBAERIAL;VOLCANIC ROCK;ANKARAMITE, HORNBLENDE;;DIKE CENTER;;;;;;;;MINERAL / COMPONENT (INCL. GROUNDMASS);AMPHIBOLE;;GROUNDMASS;;;PRIMARY;;;;;;;;49.8;0.65;5.93;0.15;;;;3.42;;5.8;12.6;17;0.19;;;;;;0.31;EMP (EPMA);;;0.69;EMP (EPMA);;;;;;;;;;;;;;;;;;;;;;;;;;;;;;;;;;;;;;;;;;;;;;;;;;;;;;;;;;;;;;;;;;;;;;;;;;;;;;;;;;;;;;;;;;;;;;;;;;;;;;;;;;;;;;;;;;;;;;;;;;;;;;;;;;;;;;;;;;;;;;;;;;;;;;;;;;;;;;;;;;;;;;;;;;;;;;;;;;;;;;;;;;;;;;;;;;;;;;;;;;;;;;;;;;;;;;;;;;;;;;;;;;;;;;;;;;;;;;;;;;;;;;;;;;;;;;;;;;;;;;;;;;;;;;;;;;;;;;;;;;;;;;;;;;;;;;;;;
2000;[6171] MOSSMAN D. J. (2000);samp. 25857;;NEW ZEALAND / SOUTH ISLAND / SOUTHLAND / GREENHILLS COMPLEX;;-46.52;168.23;-46.55;168.25;;;OUTCROP;;;SUBAERIAL;VOLCANIC ROCK;ANKARAMITE, HORNBLENDE;;DIKE;;;;;;;;MINERAL / COMPONENT (INCL. GROUNDMASS);AMPHIBOLE;;GROUNDMASS;;;PRIMARY;;;;;;;;47;0.1;11.9;;;;;6.44;;0;12.7;18.7;0.04;;;;;;0.37;EMP (EPMA);;;1.87;EMP (EPMA);;;;;;;;;;;;;;;;;;;;;;;;;;;;;;;;;;;;;;;;;;;;;;;;;;;;;;;;;;;;;;;;;;;;;;;;;;;;;;;;;;;;;;;;;;;;;;;;;;;;;;;;;;;;;;;;;;;;;;;;;;;;;;;;;;;;;;;;;;;;;;;;;;;;;;;;;;;;;;;;;;;;;;;;;;;;;;;;;;;;;;;;;;;;;;;;;;;;;;;;;;;;;;;;;;;;;;;;;;;;;;;;;;;;;;;;;;;;;;;;;;;;;;;;;;;;;;;;;;;;;;;;;;;;;;;;;;;;;;;;;;;;;;;;;;;;;;;;;
2000;[6171] MOSSMAN D. J. (2000);samp. 25857;;NEW ZEALAND / SOUTH ISLAND / SOUTHLAND / GREENHILLS COMPLEX;;-46.52;168.23;-46.55;168.25;;;OUTCROP;;;SUBAERIAL;VOLCANIC ROCK;ANKARAMITE, HORNBLENDE;;DIKE;;;;;;;;MINERAL / COMPONENT (INCL. GROUNDMASS);AMPHIBOLE;;GROUNDMASS;;;PRIMARY;;;;;;;;51.5;1.21;5.71;0.01;;;;6.48;;3.03;11.8;17.8;0.19;;;;;;0.33;EMP (EPMA);;;0.68;EMP (EPMA);;;;;;;;;;;;;;;;;;;;;;;;;;;;;;;;;;;;;;;;;;;;;;;;;;;;;;;;;;;;;;;;;;;;;;;;;;;;;;;;;;;;;;;;;;;;;;;;;;;;;;;;;;;;;;;;;;;;;;;;;;;;;;;;;;;;;;;;;;;;;;;;;;;;;;;;;;;;;;;;;;;;;;;;;;;;;;;;;;;;;;;;;;;;;;;;;;;;;;;;;;;;;;;;;;;;;;;;;;;;;;;;;;;;;;;;;;;;;;;;;;;;;;;;;;;;;;;;;;;;;;;;;;;;;;;;;;;;;;;;;;;;;;;;;;;;;;;;;
2000;[6171] MOSSMAN D. J. (2000);samp. 44991;;NEW ZEALAND / SOUTH ISLAND / SOUTHLAND / GREENHILLS COMPLEX;STEEP HEAD;-46.52;168.23;-46.52;168.23;;;OUTCROP;;;SUBAERIAL;VOLCANIC ROCK;ANKARAMITE, HORNBLENDE;;DIKE;;;PERMIAN;;;;;MINERAL / COMPONENT (INCL. GROUNDMASS);AMPHIBOLE;;GROUNDMASS;;;PRIMARY;;;;;;;;48.82;0.6;11.53;0;;;;4.17;;2.04;12.97;17.19;0;;;;;;0.4;EMP (EPMA);;;0;EMP (EPMA);;;;;;;;;;;;;;;;;;;;;;;;;;;;;;;;;;;;;;;;;;;;;;;;;;;;;;;;;;;;;;;;;;;;;;;;;;;;;;;;;;;;;;;;;;;;;;;;;;;;;;;;;;;;;;;;;;;;;;;;;;;;;;;;;;;;;;;;;;;;;;;;;;;;;;;;;;;;;;;;;;;;;;;;;;;;;;;;;;;;;;;;;;;;;;;;;;;;;;;;;;;;;;;;;;;;;;;;;;;;;;;;;;;;;;;;;;;;;;;;;;;;;;;;;;;;;;;;;;;;;;;;;;;;;;;;;;;;;;;;;;;;;;;;;;;;;;;;;
2000;[6171] MOSSMAN D. J. (2000);samp. 44991;;NEW ZEALAND / SOUTH ISLAND / SOUTHLAND / GREENHILLS COMPLEX;STEEP HEAD;-46.52;168.23;-46.52;168.23;;;OUTCROP;;;SUBAERIAL;VOLCANIC ROCK;ANKARAMITE, HORNBLENDE;;DIKE;;;PERMIAN;;;;;MINERAL / COMPONENT (INCL. GROUNDMASS);AMPHIBOLE;;GROUNDMASS;;;PRIMARY;;;;;;;;48.45;1.35;11.58;0;;;;4.36;;1.27;13.13;17.77;0;;;;;;0.41;EMP (EPMA);;;0;EMP (EPMA);;;;;;;;;;;;;;;;;;;;;;;;;;;;;;;;;;;;;;;;;;;;;;;;;;;;;;;;;;;;;;;;;;;;;;;;;;;;;;;;;;;;;;;;;;;;;;;;;;;;;;;;;;;;;;;;;;;;;;;;;;;;;;;;;;;;;;;;;;;;;;;;;;;;;;;;;;;;;;;;;;;;;;;;;;;;;;;;;;;;;;;;;;;;;;;;;;;;;;;;;;;;;;;;;;;;;;;;;;;;;;;;;;;;;;;;;;;;;;;;;;;;;;;;;;;;;;;;;;;;;;;;;;;;;;;;;;;;;;;;;;;;;;;;;;;;;;;;;
2000;[6171] MOSSMAN D. J. (2000);samp. 30999A;;NEW ZEALAND / SOUTH ISLAND / SOUTHLAND / GREENHILLS COMPLEX;;-46.52;168.23;-46.55;168.25;;;OUTCROP;;;SUBAERIAL;VOLCANIC ROCK;ANKARAMITE;;DIKE;;;;;;;;MINERAL / COMPONENT (INCL. GROUNDMASS);AMPHIBOLE;;GROUNDMASS;;;PRIMARY;;;;;;;;44.9;1.9;11;0.05;;;;6.24;;2.38;11.9;16.8;0.11;;;;;;0.62;EMP (EPMA);;;1.85;EMP (EPMA);;;;;;;;;;;;;;;;;;;;;;;;;;;;;;;;;;;;;;;;;;;;;;;;;;;;;;;;;;;;;;;;;;;;;;;;;;;;;;;;;;;;;;;;;;;;;;;;;;;;;;;;;;;;;;;;;;;;;;;;;;;;;;;;;;;;;;;;;;;;;;;;;;;;;;;;;;;;;;;;;;;;;;;;;;;;;;;;;;;;;;;;;;;;;;;;;;;;;;;;;;;;;;;;;;;;;;;;;;;;;;;;;;;;;;;;;;;;;;;;;;;;;;;;;;;;;;;;;;;;;;;;;;;;;;;;;;;;;;;;;;;;;;;;;;;;;;;;;
2000;[6171] MOSSMAN D. J. (2000);samp. 30999A;;NEW ZEALAND / SOUTH ISLAND / SOUTHLAND / GREENHILLS COMPLEX;;-46.52;168.23;-46.55;168.25;;;OUTCROP;;;SUBAERIAL;VOLCANIC ROCK;ANKARAMITE;;DIKE;;;;;;;;MINERAL / COMPONENT (INCL. GROUNDMASS);AMPHIBOLE;;GROUNDMASS;;;PRIMARY;;;;;;;;45.8;1.75;10.9;;;;;3.62;;4.6;12.6;16.7;0.09;;;;;;0.54;EMP (EPMA);;;1.69;EMP (EPMA);;;;;;;;;;;;;;;;;;;;;;;;;;;;;;;;;;;;;;;;;;;;;;;;;;;;;;;;;;;;;;;;;;;;;;;;;;;;;;;;;;;;;;;;;;;;;;;;;;;;;;;;;;;;;;;;;;;;;;;;;;;;;;;;;;;;;;;;;;;;;;;;;;;;;;;;;;;;;;;;;;;;;;;;;;;;;;;;;;;;;;;;;;;;;;;;;;;;;;;;;;;;;;;;;;;;;;;;;;;;;;;;;;;;;;;;;;;;;;;;;;;;;;;;;;;;;;;;;;;;;;;;;;;;;;;;;;;;;;;;;;;;;;;;;;;;;;;;;
2000;[6171] MOSSMAN D. J. (2000);samp. 30999B;;NEW ZEALAND / SOUTH ISLAND / SOUTHLAND / GREENHILLS COMPLEX;;-46.52;168.23;-46.55;168.25;;;OUTCROP;;;SUBAERIAL;VOLCANIC ROCK;ANKARAMITE;;DIKE;;;;;;;;MINERAL / COMPONENT (INCL. GROUNDMASS);AMPHIBOLE;;GROUNDMASS;;;PRIMARY;;;;;;;;46;0.55;11.5;0.51;;;;3.78;;4.75;12.6;16.2;0.1;;;;;;0.36;EMP (EPMA);;;1.83;EMP (EPMA);;;;;;;;;;;;;;;;;;;;;;;;;;;;;;;;;;;;;;;;;;;;;;;;;;;;;;;;;;;;;;;;;;;;;;;;;;;;;;;;;;;;;;;;;;;;;;;;;;;;;;;;;;;;;;;;;;;;;;;;;;;;;;;;;;;;;;;;;;;;;;;;;;;;;;;;;;;;;;;;;;;;;;;;;;;;;;;;;;;;;;;;;;;;;;;;;;;;;;;;;;;;;;;;;;;;;;;;;;;;;;;;;;;;;;;;;;;;;;;;;;;;;;;;;;;;;;;;;;;;;;;;;;;;;;;;;;;;;;;;;;;;;;;;;;;;;;;;;
2000;[6171] MOSSMAN D. J. (2000);samp. 30999B;;NEW ZEALAND / SOUTH ISLAND / SOUTHLAND / GREENHILLS COMPLEX;;-46.52;168.23;-46.55;168.25;;;OUTCROP;;;SUBAERIAL;VOLCANIC ROCK;ANKARAMITE;;DIKE;;;;;;;;MINERAL / COMPONENT (INCL. GROUNDMASS);AMPHIBOLE;;GROUNDMASS;;;PRIMARY;;;;;;;;46.4;0.57;11;0.47;;;;4.83;;0.15;12.5;18.8;0.03;;;;;;0.46;EMP (EPMA);;;1.8;EMP (EPMA);;;;;;;;;;;;;;;;;;;;;;;;;;;;;;;;;;;;;;;;;;;;;;;;;;;;;;;;;;;;;;;;;;;;;;;;;;;;;;;;;;;;;;;;;;;;;;;;;;;;;;;;;;;;;;;;;;;;;;;;;;;;;;;;;;;;;;;;;;;;;;;;;;;;;;;;;;;;;;;;;;;;;;;;;;;;;;;;;;;;;;;;;;;;;;;;;;;;;;;;;;;;;;;;;;;;;;;;;;;;;;;;;;;;;;;;;;;;;;;;;;;;;;;;;;;;;;;;;;;;;;;;;;;;;;;;;;;;;;;;;;;;;;;;;;;;;;;;;
2000;[6171] MOSSMAN D. J. (2000);samp. 44996;;NEW ZEALAND / SOUTH ISLAND / SOUTHLAND / GREENHILLS COMPLEX;STEEP HEAD;-46.52;168.23;-46.52;168.23;;;OUTCROP;;;SUBAERIAL;VOLCANIC ROCK;ANKARAMITE, HORNBLENDE;;DIKE;;;PERMIAN;;;;;MINERAL / COMPONENT (INCL. GROUNDMASS);AMPHIBOLE;;GROUNDMASS;;;PRIMARY;;;;;;;;47.62;1.17;10.59;0;;;;5.22;;4.57;12.76;16.06;0;;;;;;0.63;EMP (EPMA);;;0.52;EMP (EPMA);;;;;;;;;;;;;;;;;;;;;;;;;;;;;;;;;;;;;;;;;;;;;;;;;;;;;;;;;;;;;;;;;;;;;;;;;;;;;;;;;;;;;;;;;;;;;;;;;;;;;;;;;;;;;;;;;;;;;;;;;;;;;;;;;;;;;;;;;;;;;;;;;;;;;;;;;;;;;;;;;;;;;;;;;;;;;;;;;;;;;;;;;;;;;;;;;;;;;;;;;;;;;;;;;;;;;;;;;;;;;;;;;;;;;;;;;;;;;;;;;;;;;;;;;;;;;;;;;;;;;;;;;;;;;;;;;;;;;;;;;;;;;;;;;;;;;;;;;