Year;CITATION;SAMPLE NAME;UNIQUE_ID;LOCATION;LOCATION COMMENT;LATITUDE (MIN.);LONGITUDE (MIN.);LATITUDE (MAX.);LONGITUDE (MAX.);ELEVATION (MIN.);ELEVATION (MAX.);SAMPLING TECHNIQUE;DRILLING DEPTH (MIN.);DRILLING DEPTH (MAX.);LAND/SEA (SAMPLING);ROCK TYPE;ROCK NAME;ROCK TEXTURE;SAMPLE COMMENT;AGE (MIN.);AGE (MAX.);GEOLOGICAL AGE;GEOLOGICAL AGE PREFIX;ERUPTION YEAR;ALTERATION;ALTERATION TYPE;TYPE OF MATERIAL;MINERAL / COMPONENT;SPOT (MINERAL);CRYSTAL;RIM / CORE (MINERAL GRAINS);GRAIN SIZE;PRIMARY/SECONDARY;INCLUSION TYPE;SPOT (INCLUSION);MINERAL (INCLUSION);RIM / CORE (INCLUSION);HOSTMINERAL (INCLUSION);HEATING;HEATING TEMPERATURE (?C);SIO2(WT%);TIO2(WT%);AL2O3(WT%);CR2O3(WT%);V2O3(WT%);V2O5(WT%);FE2O3T(WT%);FE2O3(WT%);FEOT(WT%);FEO(WT%);CAO(WT%);MGO(WT%);MNO(WT%);BAO(WT%);SRO(WT%);NIO(WT%);ZNO(WT%);COO(WT%);K2O(WT%);;;;NA2O(WT%);;;;P2O5(WT%);H2O(WT%);H2OP(WT%);H2OM(WT%);CO2(WT%);F(WT%);CL(WT%);CL2(WT%);SO3(WT%);S(WT%);LOI(WT%);O(WT%);SI(WT%);AL(WT%);TI(WT%);FE(WT%);MG(WT%);MN(WT%);CA(WT%);K(WT%): altern. values or methods;;;;NA(WT%);CR(WT%);NI(WT%);HE(CCMSTP/G);HE3(CCMSTP/G);HE4(CCMSTP/G): altern. values or methods;;;;LI(PPM);BE(PPM);B(PPM);F(PPM);NE20(CCMSTP/G);NE22(CCMSTP/G);P(PPM);S(PPM);CL(PPM);AR36(CCMSTP/G);AR40(CCMSTP/G);AR40(MOL/G): altern. values or methods;;;;AR40(PPB);K(PPM);SC(PPM): altern. values or methods;;;;;;TI(PPM);V(PPM): altern. values or methods;;;;CR(PPM): altern. values or methods;;;;MN(PPM);FE(PPM);CO(PPM): altern. values or methods;;;;;;NI(PPM): altern. values or methods;;;;;;CU(PPM): altern. values or methods;;;;ZN(PPM): altern. values or methods;;;;GA(PPM): altern. values or methods;;;;GE(PPM);AS(PPM);KR84(CCMSTP/G);RB(PPM): altern. values or methods;;;;SR(PPM): altern. values or methods;;;;Y(PPM): altern. values or methods;;;;ZR(PPM): altern. values or methods;;;;NB(PPM): altern. values or methods;;;;MO(PPM);RU(PPB);RH(PPB);PD(PPB);IN(PPM);SN(PPM);SB(PPM);XE132(CCMSTP/G);CS(PPM);BA(PPM): altern. values or methods;;;;LA(PPM): altern. values or methods;;;;CE(PPM): altern. values or methods;;;;PR(PPM): altern. values or methods;;;;ND(PPM): altern. values or methods;;;;SM(PPM): altern. values or methods;;;;EU(PPM): altern. values or methods;;;;GD(PPM);TB(PPM): altern. values or methods;;;;DY(PPM);HO(PPM);ER(PPM);TM(PPM);YB(PPM): altern. values or methods;;;;LU(PPM);HF(PPM): altern. values or methods;;;;TA(PPM);W(PPM);RE(PPB): altern. values or methods;;;;RE(PPT);OS(PPB): altern. values or methods;;;;OS(PPT);IR(PPB);PT(PPB);AU(PPB);HG(PPB);TL(PPM);PB(PPM): altern. values or methods;;;;PB210_ACT(DPM/G);TH(PPM): altern. values or methods;;;;TH(PPB);U(PPM): altern. values or methods;;;;U(PPB);CO2(PPM);H2O(PPM);ND143_ND144;ND148_ND144;SM147_ND144;SR87_SR86;RB87_SR86;PB206_PB204: altern. values or methods;;;;PB206_PB207;PB206_PB208;PB207_PB204: altern. values or methods;;;;PB207_PB206;PB208_PB204: altern. values or methods;;;;PB208_PB206;OS187_OS186;OS187_OS188: altern. values or methods;;;;RE187_OS188: altern. values or methods;;;;HF176_HF177;HE3_HE4;HE3_HE4(R/R(A)): altern. values or methods;;;;HE4_HE3: altern. values or methods;;;;;;HE4_HE3(R/R(A)): altern. values or methods;;;;AR38_AR36;AR40_AR36;NE20_NE22;NE21_NE22;XE129_XE132;PB206_U238;PB207_U235;PB210_U238;TH232_U238;U238_PB204;D13C(VS SMOW);D17O(VS VSMOW);D18O(PER MIL);D18O(VS PDB);D18O(VS SMOW);D18O(VS VSMOW);D34S(VS CDT);D44_40CA(VS SRM915A);D56FE(VS IRMM-014);DD(VS SMOW);ALBITE(MOL%);ACMITE(MOL%);ANORTHITE(MOL%);ENSTATITE(MOL%);FAYALITE(MOL%);FORSTERITE(MOL%);FERROSILITE(MOL%);HEMATITE(MOL%);LARNITE(MOL%);ORTHOCLASE(MOL%);PSEUDOBROOKITE(MOL%);TEPHROITE(MOL%);ULVOSPINEL(MOL%);WOLLASTONITE(MOL%);AGE(KA);AGE(MA): altern. values or methods;;;;;;;;AGE_PB207_PB206(MA);AGE_PB207_U235(MA);AGE_PB206_U238(MA);
1994;[317] WEST H. B. (1994);samp. HK-58;3960;HAWAIIAN ISLANDS / MAUI / HALEAKALA / POST-SHIELD STAGE / KULA SERIES;HALEMAUU SECTION;20.72;-156.17;20.72;-156.17;;;OUTCROP;;;SUBAERIAL;VOLCANIC ROCK;ANKARAMITE;;;;;;;;FRESH;;WHOLE ROCK;;;;;;;;;;;;;;42.97;3.09;11.58;;;;14.83;;;;12.3;11.27;0.18;;;;;;0.75;XRF;;;2.11;XRF;;;0.43;;;;;;;;;;;;;;;;;;;;;;;;;;;;;;;;;;;;;;;;;;;;;;;;;32;XRF;35.1;INAA;;;;408;XRF;;;552;XRF;610;INAA;;;;;;;;;217;XRF;;;;;102;XRF;;;96;XRF;;;;;;;;;;28;XRF;;;580;XRF;;;22;XRF;;;174;XRF;;;31;XRF;;;;;;;;;;;;503;XRF;;;22;XRF;25.8;INAA;49;XRF;58.5;INAA;;;;;28;XRF;29.8;INAA;6.81;INAA;;;2.38;INAA;;;;0.66;INAA;;;;0.96;;;1.34;INAA;;;0.17;4.6;INAA;;;2.3;;;;;;;;;;;;;;;;;2.05;SIMS;;;;2.5;INAA;;;;;;;;;;;;;;;;;;;;;;;;;;;;;;;;;;;;;;;;;;;;;;;;;;;;;;;;;;;;;;;;;;;;;;;;;;;;;;;;;;;;;;;;;;;;;;;;;;;;;;;
1990;[322] CHEN CHU-YUNG (1990);samp. H65-13;1288;HAWAIIAN ISLANDS / MAUI / HALEAKALA / REJUVENATED STAGE / HANA SERIES;DRILL CORE H65;20.72;-156.17;20.72;-156.17;;;DRILL HOLE ;3;3;SUBAERIAL;VOLCANIC ROCK;ANKARAMITE;;;;;;;;FRESH;;WHOLE ROCK;;;;;;;;;;;;;;43.57;2.91;13.17;;;;14.89;;;;12.23;9.67;0.21;;;;;;0.75;XRF;0.75;TIMS_ID;1.99;XRF;2.14;INAA;0.37;0.63;;;0.47;;;;;;;;;;;;;;;;;;;;;;;;;;;;;;;;;;;;;;;;;;;;;33.7;INAA;;;;;;336;XRF;;;;;;;;;63.3;INAA;;;;;110;XRF;;;;;;;;;103;XRF;;;;;;;;;;17;XRF;;;561;XRF;;;;;;;174;XRF;;;35;XRF;;;;;;;;;;;;507;XRF;;;25.2;INAA;;;52.6;INAA;;;;;;;27.1;INAA;;;6.59;INAA;;;2.36;INAA;;;;0.94;INAA;;;;;;;1.76;INAA;;;0.26;4.2;INAA;;;2.1;;;;;;;;;;;;;;;;;;;;;;2.7;INAA;;;;;;;;;;;0.51308;;;0.70311;;;;;;;;;;;;;;;;;;;;;;;;;;;;;;;;;;;;;;;;;;;;;;;;;;;;;;;;;;;;;;;;;;;;;;;;;;;;;;;;;;;;;;;;;
1990;[322] CHEN CHU-YUNG (1990);samp. H65-14;1287;HAWAIIAN ISLANDS / MAUI / HALEAKALA / REJUVENATED STAGE / HANA SERIES;DRILL CORE H65;20.72;-156.17;20.72;-156.17;;;DRILL HOLE ;2;2;SUBAERIAL;VOLCANIC ROCK;ANKARAMITE;;;;;;;;FRESH;;WHOLE ROCK;;;;;;;;;;;;;;43.66;2.97;13.13;;;;14.84;;;;12.12;9.75;0.21;;;;;;0.86;XRF;0.86;TIMS_ID;2.5;XRF;2.57;INAA;0.37;0.34;;;0.4;;;;;;;;;;;;;;;;;;;;;;;;;;;;;;;;;;;;;;;;;;;;;32.8;INAA;;;;;;339;XRF;;;;;;;;;62.8;INAA;;;;;109;XRF;;;;;;;;;101;XRF;;;;;;;;;;20.2;XRF;;;565;XRF;;;;;;;174;XRF;;;35.4;XRF;;;;;;;;;;;;468;XRF;;;25.3;INAA;;;53.4;INAA;;;;;;;27.8;INAA;;;6.61;INAA;;;2.28;INAA;;;;0.91;INAA;;;;;;;1.73;INAA;;;0.23;4.32;INAA;;;2;;;;;;;;;;;;;;;;;;;;;;2.7;INAA;;;;;;;;;;;0.5131;;;0.70318;;;;;;;;;;;;;;;;;;;;;;;;;;;;;;;;;;;;;;;;;;;;;;;;;;;;;;;;;;;;;;;;;;;;;;;;;;;;;;;;;;;;;;;;;
1990;[322] CHEN CHU-YUNG (1990);samp. H65-14;1287;HAWAIIAN ISLANDS / MAUI / HALEAKALA / REJUVENATED STAGE / HANA SERIES;DRILL CORE H65;20.72;-156.17;20.72;-156.17;;;DRILL HOLE ;2;2;SUBAERIAL;VOLCANIC ROCK;ANKARAMITE;;;;;;;;FRESH;;MINERAL / COMPONENT (INCL. GROUNDMASS);OLIVINE;H65-14_1C;PHENOCRYST;CORE;1.3 MM;PRIMARY;;;;;;;;38.3;;;;;;;;;22.3;;39.6;0.37;;;0.02;;;;;;;;;;;;;;;;;;;;;;;;;;;;;;;;;;;;;;;;;;;;;;;;;;;;;;;;;;;;;;;;;;;;;;;;;;;;;;;;;;;;;;;;;;;;;;;;;;;;;;;;;;;;;;;;;;;;;;;;;;;;;;;;;;;;;;;;;;;;;;;;;;;;;;;;;;;;;;;;;;;;;;;;;;;;;;;;;;;;;;;;;;;;;;;;;;;;;;;;;;;;;;;;;;;;;;;;;;;;;;;;;;;;;;;;;;;;;;;;;;;;;;;;;;;;;;;;;;;;;;;;;;;;;;;;;;;;;;;;;;;;76;;;;;;;;;;;;;;;;;;;;;
1990;[322] CHEN CHU-YUNG (1990);samp. H65-14;1287;HAWAIIAN ISLANDS / MAUI / HALEAKALA / REJUVENATED STAGE / HANA SERIES;DRILL CORE H65;20.72;-156.17;20.72;-156.17;;;DRILL HOLE ;2;2;SUBAERIAL;VOLCANIC ROCK;ANKARAMITE;;;;;;;;FRESH;;MINERAL / COMPONENT (INCL. GROUNDMASS);OLIVINE;H65-14_1R;PHENOCRYST;RIM;1.3 MM;PRIMARY;;;;;;;;38.7;;;;;;;;;20.9;;40.4;0.3;;;0.04;;;;;;;;;;;;;;;;;;;;;;;;;;;;;;;;;;;;;;;;;;;;;;;;;;;;;;;;;;;;;;;;;;;;;;;;;;;;;;;;;;;;;;;;;;;;;;;;;;;;;;;;;;;;;;;;;;;;;;;;;;;;;;;;;;;;;;;;;;;;;;;;;;;;;;;;;;;;;;;;;;;;;;;;;;;;;;;;;;;;;;;;;;;;;;;;;;;;;;;;;;;;;;;;;;;;;;;;;;;;;;;;;;;;;;;;;;;;;;;;;;;;;;;;;;;;;;;;;;;;;;;;;;;;;;;;;;;;;;;;;;;;77.5;;;;;;;;;;;;;;;;;;;;;
1990;[322] CHEN CHU-YUNG (1990);samp. H65-14;1287;HAWAIIAN ISLANDS / MAUI / HALEAKALA / REJUVENATED STAGE / HANA SERIES;DRILL CORE H65;20.72;-156.17;20.72;-156.17;;;DRILL HOLE ;2;2;SUBAERIAL;VOLCANIC ROCK;ANKARAMITE;;;;;;;;FRESH;;MINERAL / COMPONENT (INCL. GROUNDMASS);OLIVINE;H65-14_2C;PHENOCRYST;CORE;0.8 MM;PRIMARY;;;;;;;;38.1;;;;;;;;;22.6;;39.4;0.4;;;0.14;;;;;;;;;;;;;;;;;;;;;;;;;;;;;;;;;;;;;;;;;;;;;;;;;;;;;;;;;;;;;;;;;;;;;;;;;;;;;;;;;;;;;;;;;;;;;;;;;;;;;;;;;;;;;;;;;;;;;;;;;;;;;;;;;;;;;;;;;;;;;;;;;;;;;;;;;;;;;;;;;;;;;;;;;;;;;;;;;;;;;;;;;;;;;;;;;;;;;;;;;;;;;;;;;;;;;;;;;;;;;;;;;;;;;;;;;;;;;;;;;;;;;;;;;;;;;;;;;;;;;;;;;;;;;;;;;;;;;;;;;;;;75.7;;;;;;;;;;;;;;;;;;;;;
1990;[322] CHEN CHU-YUNG (1990);samp. H65-14;1287;HAWAIIAN ISLANDS / MAUI / HALEAKALA / REJUVENATED STAGE / HANA SERIES;DRILL CORE H65;20.72;-156.17;20.72;-156.17;;;DRILL HOLE ;2;2;SUBAERIAL;VOLCANIC ROCK;ANKARAMITE;;;;;;;;FRESH;;MINERAL / COMPONENT (INCL. GROUNDMASS);OLIVINE;H65-14_2R;PHENOCRYST;RIM;0.8 MM;PRIMARY;;;;;;;;38.3;;;;;;;;;22.5;;39.1;0.46;;;0.05;;;;;;;;;;;;;;;;;;;;;;;;;;;;;;;;;;;;;;;;;;;;;;;;;;;;;;;;;;;;;;;;;;;;;;;;;;;;;;;;;;;;;;;;;;;;;;;;;;;;;;;;;;;;;;;;;;;;;;;;;;;;;;;;;;;;;;;;;;;;;;;;;;;;;;;;;;;;;;;;;;;;;;;;;;;;;;;;;;;;;;;;;;;;;;;;;;;;;;;;;;;;;;;;;;;;;;;;;;;;;;;;;;;;;;;;;;;;;;;;;;;;;;;;;;;;;;;;;;;;;;;;;;;;;;;;;;;;;;;;;;;;75.6;;;;;;;;;;;;;;;;;;;;;
1990;[322] CHEN CHU-YUNG (1990);samp. H65-14;1287;HAWAIIAN ISLANDS / MAUI / HALEAKALA / REJUVENATED STAGE / HANA SERIES;DRILL CORE H65;20.72;-156.17;20.72;-156.17;;;DRILL HOLE ;2;2;SUBAERIAL;VOLCANIC ROCK;ANKARAMITE;;;;;;;;FRESH;;MINERAL / COMPONENT (INCL. GROUNDMASS);CLINOPYROXENE;H65-14_1C;PHENOCRYST;CORE;2.4 MM;PRIMARY;;;;;;;;47.1;2;8.7;0.33;;;;;;7.3;20.8;13;0.13;;;;;;;;;;0.75;EMP (EPMA);;;;;;;;;;;;;;;;;;;;;;;;;;;;;;;;;;;;;;;;;;;;;;;;;;;;;;;;;;;;;;;;;;;;;;;;;;;;;;;;;;;;;;;;;;;;;;;;;;;;;;;;;;;;;;;;;;;;;;;;;;;;;;;;;;;;;;;;;;;;;;;;;;;;;;;;;;;;;;;;;;;;;;;;;;;;;;;;;;;;;;;;;;;;;;;;;;;;;;;;;;;;;;;;;;;;;;;;;;;;;;;;;;;;;;;;;;;;;;;;;;;;;;;;;;;;;;;;;;;;;;;;;;;;;;;;;;;;;;;;;;;;;;;;;;;;;;;;;
1990;[322] CHEN CHU-YUNG (1990);samp. H65-14;1287;HAWAIIAN ISLANDS / MAUI / HALEAKALA / REJUVENATED STAGE / HANA SERIES;DRILL CORE H65;20.72;-156.17;20.72;-156.17;;;DRILL HOLE ;2;2;SUBAERIAL;VOLCANIC ROCK;ANKARAMITE;;;;;;;;FRESH;;MINERAL / COMPONENT (INCL. GROUNDMASS);CLINOPYROXENE;H65-14_1R;PHENOCRYST;RIM;2.4 MM;PRIMARY;;;;;;;;45.6;3.4;8.1;0.01;;;;;;8.5;21.8;11.4;0.14;;;;;;;;;;0.5;EMP (EPMA);;;;;;;;;;;;;;;;;;;;;;;;;;;;;;;;;;;;;;;;;;;;;;;;;;;;;;;;;;;;;;;;;;;;;;;;;;;;;;;;;;;;;;;;;;;;;;;;;;;;;;;;;;;;;;;;;;;;;;;;;;;;;;;;;;;;;;;;;;;;;;;;;;;;;;;;;;;;;;;;;;;;;;;;;;;;;;;;;;;;;;;;;;;;;;;;;;;;;;;;;;;;;;;;;;;;;;;;;;;;;;;;;;;;;;;;;;;;;;;;;;;;;;;;;;;;;;;;;;;;;;;;;;;;;;;;;;;;;;;;;;;;;;;;;;;;;;;;;
1990;[322] CHEN CHU-YUNG (1990);samp. H65-14;1287;HAWAIIAN ISLANDS / MAUI / HALEAKALA / REJUVENATED STAGE / HANA SERIES;DRILL CORE H65;20.72;-156.17;20.72;-156.17;;;DRILL HOLE ;2;2;SUBAERIAL;VOLCANIC ROCK;ANKARAMITE;;;;;;;;FRESH;;MINERAL / COMPONENT (INCL. GROUNDMASS);CLINOPYROXENE;H65-14_2C;PHENOCRYST;CORE;2.2 MM;PRIMARY;;;;;;;;46.4;2;8.8;0.15;;;;;;7.9;20.8;12.7;0.07;;;;;;;;;;0.84;EMP (EPMA);;;;;;;;;;;;;;;;;;;;;;;;;;;;;;;;;;;;;;;;;;;;;;;;;;;;;;;;;;;;;;;;;;;;;;;;;;;;;;;;;;;;;;;;;;;;;;;;;;;;;;;;;;;;;;;;;;;;;;;;;;;;;;;;;;;;;;;;;;;;;;;;;;;;;;;;;;;;;;;;;;;;;;;;;;;;;;;;;;;;;;;;;;;;;;;;;;;;;;;;;;;;;;;;;;;;;;;;;;;;;;;;;;;;;;;;;;;;;;;;;;;;;;;;;;;;;;;;;;;;;;;;;;;;;;;;;;;;;;;;;;;;;;;;;;;;;;;;;
1990;[322] CHEN CHU-YUNG (1990);samp. H65-14;1287;HAWAIIAN ISLANDS / MAUI / HALEAKALA / REJUVENATED STAGE / HANA SERIES;DRILL CORE H65;20.72;-156.17;20.72;-156.17;;;DRILL HOLE ;2;2;SUBAERIAL;VOLCANIC ROCK;ANKARAMITE;;;;;;;;FRESH;;MINERAL / COMPONENT (INCL. GROUNDMASS);CLINOPYROXENE;H65-14_2R;PHENOCRYST;RIM;2.2 MM;PRIMARY;;;;;;;;47.8;2.5;5.8;0;;;;;;8;22.2;12.6;0.1;;;;;;;;;;0.4;EMP (EPMA);;;;;;;;;;;;;;;;;;;;;;;;;;;;;;;;;;;;;;;;;;;;;;;;;;;;;;;;;;;;;;;;;;;;;;;;;;;;;;;;;;;;;;;;;;;;;;;;;;;;;;;;;;;;;;;;;;;;;;;;;;;;;;;;;;;;;;;;;;;;;;;;;;;;;;;;;;;;;;;;;;;;;;;;;;;;;;;;;;;;;;;;;;;;;;;;;;;;;;;;;;;;;;;;;;;;;;;;;;;;;;;;;;;;;;;;;;;;;;;;;;;;;;;;;;;;;;;;;;;;;;;;;;;;;;;;;;;;;;;;;;;;;;;;;;;;;;;;;
1990;[322] CHEN CHU-YUNG (1990);samp. H65-14;1287;HAWAIIAN ISLANDS / MAUI / HALEAKALA / REJUVENATED STAGE / HANA SERIES;DRILL CORE H65;20.72;-156.17;20.72;-156.17;;;DRILL HOLE ;2;2;SUBAERIAL;VOLCANIC ROCK;ANKARAMITE;;;;;;;;FRESH;;MINERAL / COMPONENT (INCL. GROUNDMASS);CLINOPYROXENE;H65-14_3C;XENOCRYST;CORE;2.0 MM;PRIMARY;;;;;;;;47.2;1.9;8.3;0.5;;;;;;7.4;21;13.1;0.08;;;;;;;;;;0.67;EMP (EPMA);;;;;;;;;;;;;;;;;;;;;;;;;;;;;;;;;;;;;;;;;;;;;;;;;;;;;;;;;;;;;;;;;;;;;;;;;;;;;;;;;;;;;;;;;;;;;;;;;;;;;;;;;;;;;;;;;;;;;;;;;;;;;;;;;;;;;;;;;;;;;;;;;;;;;;;;;;;;;;;;;;;;;;;;;;;;;;;;;;;;;;;;;;;;;;;;;;;;;;;;;;;;;;;;;;;;;;;;;;;;;;;;;;;;;;;;;;;;;;;;;;;;;;;;;;;;;;;;;;;;;;;;;;;;;;;;;;;;;;;;;;;;;;;;;;;;;;;;;
1990;[322] CHEN CHU-YUNG (1990);samp. H65-14;1287;HAWAIIAN ISLANDS / MAUI / HALEAKALA / REJUVENATED STAGE / HANA SERIES;DRILL CORE H65;20.72;-156.17;20.72;-156.17;;;DRILL HOLE ;2;2;SUBAERIAL;VOLCANIC ROCK;ANKARAMITE;;;;;;;;FRESH;;MINERAL / COMPONENT (INCL. GROUNDMASS);CLINOPYROXENE;H65-14_3R;XENOCRYST;RIM;2.0 MM;PRIMARY;;;;;;;;49.7;1.9;4.9;0;;;;;;7.9;21;13.3;0.2;;;;;;;;;;0.4;EMP (EPMA);;;;;;;;;;;;;;;;;;;;;;;;;;;;;;;;;;;;;;;;;;;;;;;;;;;;;;;;;;;;;;;;;;;;;;;;;;;;;;;;;;;;;;;;;;;;;;;;;;;;;;;;;;;;;;;;;;;;;;;;;;;;;;;;;;;;;;;;;;;;;;;;;;;;;;;;;;;;;;;;;;;;;;;;;;;;;;;;;;;;;;;;;;;;;;;;;;;;;;;;;;;;;;;;;;;;;;;;;;;;;;;;;;;;;;;;;;;;;;;;;;;;;;;;;;;;;;;;;;;;;;;;;;;;;;;;;;;;;;;;;;;;;;;;;;;;;;;;;
1987;[323] WEST H. B. (1987);samp. HK-58;3960;HAWAIIAN ISLANDS / MAUI / HALEAKALA / POST-SHIELD STAGE / KULA SERIES;HALEMAUU SECTION;20.72;-156.17;20.72;-156.17;;;OUTCROP;;;SUBAERIAL;VOLCANIC ROCK;ANKARAMITE;;;;;;;;;;WHOLE ROCK;;;;;;;;;;;;;;;;;;;;;;;;;;;;;;;;;;;;;;;;;;;;;;;;;;;;;;;;;;;;;;;;;;;;;;;;;;;;;;;;;;;;;;;;;;;;;;;;;;;;;;;;;;;;;;;;;;;;;;;;;;;;;;;;;;;;;;;;;;;;;;;;;;;;;;;;;;;;;;;;;;;;;;;;;;;;;;;;;;;;;;;;;;;;;;;;;;;;;;;;;;;;;;;;;;;;;;;;;;;;;;;;;;;;;;;;;;;;;;;;;;;;;0.70314;;18.184;TIMS;;;;;15.448;TIMS;;;;37.75;TIMS;;;;;;;;;;;;;;;;;;;;;;;;;;;;;;;;;;;;;;;;;;;;;;;;;;;;;;;;;;;;;;;;;;;;;;;;;;;
1965;[386] HAMILTON E. I. (1965);samp. 4;;HAWAIIAN ISLANDS / HAWAII / MAUNA KEA / POST-SHIELD STAGE / UPPER HAMAKUA SERIES;POPOO GULCH;20;-155.25;20;-155.25;;;OUTCROP;;;SUBAERIAL;VOLCANIC ROCK;ANKARAMITE;;;;;;;;;;WHOLE ROCK;;;;;;;;;;;;;;;;;;;;;;;;;;;;;;;;;;;;;;;;;;;;;;;;;;;;;;;;;;;0.51;INAA;;;;;;;;;;;;;;;;;;;;;;;;;;;;;;;;;;;;;;;;;;;;;;;;;;;;;;;;;;;;;;;;;;;;;;;;;10;XRF;;;515;XRF;;;;;;;;;;;;;;;;;;;;;;;;;;;;;;;;;;;;;;;;;;;;;;;;;;;;;;;;;;;;;;;;;;;;;;;;;;;;;;;;;;;;;;;;;;;;;;;;;0.32;INAA;;;;;;;;;0.7044;;;;;;;;;;;;;;;;;;;;;;;;;;;;;;;;;;;;;;;;;;;;;;;;;;;;;;;;;;;;;;;;;;;;;;;;;;;;;;;;;;;;;;;;;
1964;[390] LESSING P. (1964);samp. H-5-61;4609;HAWAIIAN ISLANDS / MAUI / HALEAKALA;;20.72;-156.17;20.72;-156.17;;;OUTCROP;;;SUBAERIAL;VOLCANIC ROCK;ANKARAMITE;;;;;;;;;;WHOLE ROCK;;;;;;;;;;;;;;;;;;;;;;;;;;;;;;;;;;;;;;;;;;;;;;;;;;;;;;;;;;;;;;;;;;;;;;;;;;;;;;;;;;;;;;;;;;;;;;;;;;;;;;;;;;;;;;;;;;;;;;;;;;;;;;;;;;;;;;;;;400;XRF;;;;;;;;;;;;;;;;;;;;;;;;;;;;;;;;;;;;;;;;;;;;;;;;;;;;;;;;;;;;;;;;;;;;;;;;;;;;;;;;;;;;;;;;;;;;;;;;;;;;;;;;;;;0.7033;;;;;;;;;;;;;;;;;;;;;;;;;;;;;;;;;;;;;;;;;;;;;;;;;;;;;;;;;;;;;;;;;;;;;;;;;;;;;;;;;;;;;;;;;
1966;[406] SOMAYAJULU B. L. K. (1966);samp. HMC-8;4769;HAWAIIAN ISLANDS / HAWAII / MAUNA KEA;;19.83;-155.42;19.83;-155.42;;;OUTCROP;;;SUBAERIAL;VOLCANIC ROCK;ANKARAMITE;;;;;;;;;;WHOLE ROCK;;;;;;;;;;;;;;;;;;;;;;;;;;;;;;;;;;;;;;;;;;;;;;;;;;;;;;;;;;;;;;;;;;;;;;;;;;;;;;;;;;;;;;;;;;;;;;;;;;;;;;;;;;;;;;;;;;;;;;;;;;;;;;;;;;;;;;;;;;;;;;;;;;;;;;;;;;;;;;;;;;;;;;;;;;;;;;;;;;;;;;;;;;;;;;;;;;;;;;;;;;;;;;;;;;;;;;;;;;;;;;;;;;;;;0.18;1.18;MS_ID;;;;0.39;MS_ID;;;;;;;;;;;;;;;;;;;;;;;;;;;;;;;;;;;;;;;;;;;;;;;;;;;;;;;;;;;0.62;;;;;;;;;;;;;;;;;;;;;;;;;;;;;;;;;;;;;;;
1963;[413] LESSING P. (1963);samp. H-5-61;4609;HAWAIIAN ISLANDS / MAUI / HALEAKALA;;20.72;-156.17;20.72;-156.17;;;OUTCROP;;;SUBAERIAL;VOLCANIC ROCK;ANKARAMITE;;;;;;;;;;WHOLE ROCK;;;;;;;;;;;;;;;;;;;;;;;;;;;;;;;;;;;;;;;;;;;;;;;;;;;;;;;;;;;0.59;XRD;;;;;;;;;;;;;;;;;;;;;;;;;;;;;;;;;;;;;;;;;;;;;;;;;;;;;;;;;;;;;;;;;;;;;;;;;11;XRF;;;;;;;;;;;;;;;;;;;;;;;;;;;;;;;;;;;;;;;;;;;;;;;;;;;;;;;;;;;;;;;;;;;;;;;;;;;;;;;;;;;;;;;;;;;;;;;;;;;;;;;;;;;;;;;;;;;;;;;;;;;;;;;;;;;;;;;;;;;;;;;;;;;;;;;;;;;;;;;;;;;;;;;;;;;;;;;;;;;;;;;;;;;;;;;;;;;;;;;;
1991;[449] STAUDIGEL H. (1991);samp. V33-76-1;;WAKE SEAMOUNT GROUP / GOLDEN DRAGON;;21.35;153.33;21.35;153.33;-3835;-3835;DREDGE;;;SUBAQUATIC;VOLCANIC ROCK;ANKARAMITE;;FLOW;99400000;99400000;CRETACEOUS;;;EXTENSIVELY ALTERED;;WHOLE ROCK;;;;;;;;;;;;;;;;;;;;;;;;;;;;;;;;;;;;;;;;;;;;;;;;;;;;;;;;;;;;;;;;;;;;;;;;;;;;;;;;;;;;;;;;;;;;;;;;;;;;;;;;;;;;;;;;;;;;;;;;;;;;;;;;;;;;;;;;;;;;;;;;;;;;;;;;;;;;;;;;;;;;;;;;;;;;;;;;;;;;;;;;;;;;;;;;;;;;;;;;;;;;;;;;;;;;;;;;;;;;;;;;;;;;;;;;;;;;;;;;;;0.512961;;0.1245;0.702984;0.02813;20.37;TIMS;;;;;15.694;TIMS;;;;39.912;TIMS;;;;;;;;;;;;;;;;;;;;;;;;;;;;;;;;;;;;;;;;;;;;;;;;;;;;;;;;;;;;;;;;;;;;;;;;;;;
1986;[452] PALACZ Z. A. (1986);samp. R-6;7621;AUSTRAL-COOK ISLANDS / RAROTONGA;TE MANGA GROUP, AVANA STREAM;-21.21;-159.82;-21.21;-159.82;;;OUTCROP;;;SUBAERIAL;VOLCANIC ROCK;ANKARAMITE;VESICULAR;;;;;;;FRESH;;WHOLE ROCK;;;;;;;;;;;;;;41.4;3.57;12.1;;;;13.17;;;;12.06;10.8;0.17;;;;;;0.75;XRF;;;2.2;XRF;;;0.59;;;;;;;;;;1.52;;;;;;;;;;;;;;;;;;;;;;;;;;;;;;;;;;;;;;;;;;;;;;;;;;417;XRF;;;;;;;;;;;228;XRF;;;;;;;;;;;;;;;;;;;;24;XRF;;;933;XRF;;;27;XRF;;;242;XRF;;;65;XRF;;;;;;;;;;;;1050;XRF;;;60;INAA;;;110.2;INAA;;;;;;;53.2;INAA;;;10.1;INAA;;;3.61;INAA;;;7.81;1.2;INAA;;;;;;;1.73;INAA;;;;7.18;INAA;;;5.03;;;;;;;;;;;;;;;;;4.62;XRF;;;;8.95;INAA;;;;;;;;;;;;;;0.70428;;18.38;TIMS;;;;;15.547;TIMS;;;;38.826;TIMS;;;;;;;;;;;;;;;;;;;;;;;;;;;;;;;;;;;;;;;;;;;;;;;;;;;;;;;;;;;;;;;;;;;;;;;;;;;
1986;[474] JOHNSON K. T. M. (1986);samp. 3-2;;SAMOAN ISLANDS / LALLA ROOKH BANK / DREDGE 3;S SLOPE;-12.985;-175.635;-12.985;-175.635;-2400;-2800;DREDGE;;;SUBAQUATIC;VOLCANIC ROCK;ANKARAMITE;;;;;;;;;;WHOLE ROCK;;;;;;;;;;;;;;39.12;4.28;9.17;;;;;5.62;;8.24;14.28;11.39;0.18;;;;;;1.46;COL;;;2.33;COL;;;0.6;;1.28;0.87;0.9;;;;0.05;;;;;;;;;;;;;;;;;;;;;;;;;;;;;;;;;;;;;;;;;;;;;;;;398;XRF;;;472;XRF;;;;;;;;;;;340;XRF;;;;;188;XRF;;;119;XRF;;;15;XRF;;;;;;43.4;XRF;;;700;XRF;;;27;XRF;;;289;XRF;;;79;XRF;;;;;;;;;;;;629;XRF;;;65;XRF;;;99;XRF;;;;;;;;;;;;;;;;;;;;;;;;;;;;;;;;;;;;;;;;;;;;;;;;;;;;;;6.2;XRF;;;;16.1;XRF;;;;4;XRF;;;;;;;;;;;;;;;;;;;;;;;;;;;;;;;;;;;;;;;;;;;;;;;;;;;;;;;;;;;;;;;;;;;;;;;;;;;;;;;;;;;;;;;;;;;;;;;;;;
1986;[474] JOHNSON K. T. M. (1986);samp. 3-11;;SAMOAN ISLANDS / LALLA ROOKH BANK / DREDGE 3;S SLOPE;-12.985;-175.635;-12.985;-175.635;-2400;-2800;DREDGE;;;SUBAQUATIC;VOLCANIC ROCK;ANKARAMITE;;;;;;;;;;WHOLE ROCK;;;;;;;;;;;;;;39.04;3.56;9.02;;;;;5.79;;8.01;11.96;15.31;0.2;;;;;;0.69;COL;;;2.12;COL;;;0.73;;3.08;0.6;0.34;;;;0.03;;;;;;;;;;;;;;;;;;;;;;;;;;;;;;;;;;;;;;;;;;;;;;;;340;XRF;;;547;XRF;;;;;;;;;;;533;XRF;;;;;106;XRF;;;132;XRF;;;16.6;XRF;;;;;;15.5;XRF;;;748;XRF;;;23;XRF;;;258;XRF;;;85;XRF;;;;;;;;;;;;684;XRF;;;65;XRF;;;101;XRF;;;;;;;;;;;;;;;;;;;;;;;;;;;;;;;;;;;;;;;;;;;;;;;;;;;;;;5.2;XRF;;;;8.5;XRF;;;;3.9;XRF;;;;;;;;;;;;;;;;;;;;;;;;;;;;;;;;;;;;;;;;;;;;;;;;;;;;;;;;;;;;;;;;;;;;;;;;;;;;;;;;;;;;;;;;;;;;;;;;;;
1986;[474] JOHNSON K. T. M. (1986);samp. 3-21;;SAMOAN ISLANDS / LALLA ROOKH BANK / DREDGE 3;S SLOPE;-12.985;-175.635;-12.985;-175.635;-2400;-2800;DREDGE;;;SUBAQUATIC;VOLCANIC ROCK;ANKARAMITE;;;;;;;;;;WHOLE ROCK;;;;;;;;;;;;;;42.8;3.48;11.6;;;;;3.94;;8.62;9.79;11.86;0.17;;;;;;1.35;COL;;;2.84;COL;;;0.68;;2.32;0.58;0.13;;;;0.04;;;;;;;;;;;;;;;;;;;;;;;;;;;;;;;;;;;;;;;;;;;;;;;;295;XRF;;;412;XRF;;;;;;;;;;;363;XRF;;;;;91;XRF;;;127;XRF;;;19;XRF;;;;;;32.8;XRF;;;720;XRF;;;28;XRF;;;313;XRF;;;71;XRF;;;;;;;;;;;;536;XRF;;;61;XRF;;;89;XRF;;;;;;;;;;;;;;;;;;;;;;;;;;;;;;;;;;;;;;;;;;;;;;;;;;;;;;1.6;XRF;;;;6.5;XRF;;;;2.7;XRF;;;;;;;;;;;;;;;;;;;;;;;;;;;;;;;;;;;;;;;;;;;;;;;;;;;;;;;;;;;;;;;;;;;;;;;;;;;;;;;;;;;;;;;;;;;;;;;;;;
1976;[480] GRANT N. K. (1976);samp. 179;6390;ST. HELENA CHAIN / ST. HELENA / MAIN SHIELD VOLCANO (SOUTHWESTERN VOLCANO) / SHIELD STAGE;;-15.95;-5.7;-15.95;-5.7;;;OUTCROP;;;SUBAERIAL;VOLCANIC ROCK;ANKARAMITE;;;;;;;;;;WHOLE ROCK;;;;;;;;;;;;;;;;;;;;;;;;;;;;;;;;;;;;;;;;;;;;;;;;;;;;;;;;;;;;;;;;;;;;;;;;;;;;;;;;;;;;;;;;;;;;;;;;;;;;;;;;;;;;;;;;;;;;;;;;;;;;;;;;;;;;;11.8;XRF;;;429;XRF;;;;;;;;;;;;;;;;;;;;;;;;;;;;;;;;;;;;;;;;;;;;;;;;;;;;;;;;;;;;;;;;;;;;;;;;;;;;;;;;;;;;;;;;;;;;;;;;;;;;;;;;;;;0.70307;;;;;;;;;;;;;;;;;;;;;;;;;;;;;;;;;;;;;;;;;;;;;;;;;;;;;;;;;;;;;;;;;;;;;;;;;;;;;;;;;;;;;;;;;