Year;CITATION;SAMPLE NAME;UNIQUE_ID;LOCATION;LOCATION COMMENT;LATITUDE (MIN.);LONGITUDE (MIN.);LATITUDE (MAX.);LONGITUDE (MAX.);ELEVATION (MIN.);ELEVATION (MAX.);SAMPLING TECHNIQUE;DRILLING DEPTH (MIN.);DRILLING DEPTH (MAX.);LAND/SEA (SAMPLING);ROCK TYPE;ROCK NAME;ROCK TEXTURE;SAMPLE COMMENT;AGE (MIN.);AGE (MAX.);GEOLOGICAL AGE;GEOLOGICAL AGE PREFIX;ERUPTION YEAR;ALTERATION;ALTERATION TYPE;TYPE OF MATERIAL;MINERAL / COMPONENT;SPOT (MINERAL);CRYSTAL;RIM / CORE (MINERAL GRAINS);GRAIN SIZE;PRIMARY/SECONDARY;INCLUSION TYPE;SPOT (INCLUSION);MINERAL (INCLUSION);RIM / CORE (INCLUSION);HOSTMINERAL (INCLUSION);HEATING;HEATING TEMPERATURE (?C);SIO2(WT%);TIO2(WT%);AL2O3(WT%);CR2O3(WT%);V2O3(WT%);V2O5(WT%);FE2O3T(WT%);FE2O3(WT%);FEOT(WT%);FEO(WT%);CAO(WT%);MGO(WT%);MNO(WT%);BAO(WT%);SRO(WT%);NIO(WT%);ZNO(WT%);COO(WT%);K2O(WT%);;;;NA2O(WT%);;;;P2O5(WT%);H2O(WT%);H2OP(WT%);H2OM(WT%);CO2(WT%);F(WT%);CL(WT%);CL2(WT%);SO3(WT%);S(WT%);LOI(WT%);O(WT%);SI(WT%);AL(WT%);TI(WT%);FE(WT%);MG(WT%);MN(WT%);CA(WT%);K(WT%): altern. values or methods;;;;NA(WT%);CR(WT%);NI(WT%);HE(CCMSTP/G);HE3(CCMSTP/G);HE4(CCMSTP/G): altern. values or methods;;;;LI(PPM);BE(PPM);B(PPM);F(PPM);NE20(CCMSTP/G);NE22(CCMSTP/G);P(PPM);S(PPM);CL(PPM);AR36(CCMSTP/G);AR40(CCMSTP/G);AR40(MOL/G): altern. values or methods;;;;AR40(PPB);K(PPM);SC(PPM): altern. values or methods;;;;;;TI(PPM);V(PPM): altern. values or methods;;;;CR(PPM): altern. values or methods;;;;MN(PPM);FE(PPM);CO(PPM): altern. values or methods;;;;;;NI(PPM): altern. values or methods;;;;;;CU(PPM): altern. values or methods;;;;ZN(PPM): altern. values or methods;;;;GA(PPM): altern. values or methods;;;;GE(PPM);AS(PPM);KR84(CCMSTP/G);RB(PPM): altern. values or methods;;;;SR(PPM): altern. values or methods;;;;Y(PPM): altern. values or methods;;;;ZR(PPM): altern. values or methods;;;;NB(PPM): altern. values or methods;;;;MO(PPM);RU(PPB);RH(PPB);PD(PPB);IN(PPM);SN(PPM);SB(PPM);XE132(CCMSTP/G);CS(PPM);BA(PPM): altern. values or methods;;;;LA(PPM): altern. values or methods;;;;CE(PPM): altern. values or methods;;;;PR(PPM): altern. values or methods;;;;ND(PPM): altern. values or methods;;;;SM(PPM): altern. values or methods;;;;EU(PPM): altern. values or methods;;;;GD(PPM);TB(PPM): altern. values or methods;;;;DY(PPM);HO(PPM);ER(PPM);TM(PPM);YB(PPM): altern. values or methods;;;;LU(PPM);HF(PPM): altern. values or methods;;;;TA(PPM);W(PPM);RE(PPB): altern. values or methods;;;;RE(PPT);OS(PPB): altern. values or methods;;;;OS(PPT);IR(PPB);PT(PPB);AU(PPB);HG(PPB);TL(PPM);PB(PPM): altern. values or methods;;;;PB210_ACT(DPM/G);TH(PPM): altern. values or methods;;;;TH(PPB);U(PPM): altern. values or methods;;;;U(PPB);CO2(PPM);H2O(PPM);ND143_ND144;ND148_ND144;SM147_ND144;SR87_SR86;RB87_SR86;PB206_PB204: altern. values or methods;;;;PB206_PB207;PB206_PB208;PB207_PB204: altern. values or methods;;;;PB207_PB206;PB208_PB204: altern. values or methods;;;;PB208_PB206;OS187_OS186;OS187_OS188: altern. values or methods;;;;RE187_OS188: altern. values or methods;;;;HF176_HF177;HE3_HE4;HE3_HE4(R/R(A)): altern. values or methods;;;;HE4_HE3: altern. values or methods;;;;;;HE4_HE3(R/R(A)): altern. values or methods;;;;AR38_AR36;AR40_AR36;NE20_NE22;NE21_NE22;XE129_XE132;PB206_U238;PB207_U235;PB210_U238;TH232_U238;U238_PB204;D13C(VS SMOW);D17O(VS VSMOW);D18O(PER MIL);D18O(VS PDB);D18O(VS SMOW);D18O(VS VSMOW);D34S(VS CDT);D44_40CA(VS SRM915A);D56FE(VS IRMM-014);DD(VS SMOW);ALBITE(MOL%);ACMITE(MOL%);ANORTHITE(MOL%);ENSTATITE(MOL%);FAYALITE(MOL%);FORSTERITE(MOL%);FERROSILITE(MOL%);HEMATITE(MOL%);LARNITE(MOL%);ORTHOCLASE(MOL%);PSEUDOBROOKITE(MOL%);TEPHROITE(MOL%);ULVOSPINEL(MOL%);WOLLASTONITE(MOL%);AGE(KA);AGE(MA): altern. values or methods;;;;;;;;AGE_PB207_PB206(MA);AGE_PB207_U235(MA);AGE_PB206_U238(MA);
1984;[869] STAUDIGEL H. (1984);samp. 249;;CANARY ISLANDS / LA PALMA / COBERTA SERIES;ROAD CUT 300 M EAST OF EL TIME;28.67;-17.9;28.67;-17.9;;;OUTCROP;;;SUBAERIAL;VOLCANIC ROCK;ANKARAMITE;SUBOPHITIC GROUNDMASS;;;;;;;EXTENSIVELY ALTERED;LOW-TEMPERATURE ALTERATION AND GREENSCHIST-FACIES METAMORPHISM;WHOLE ROCK;;;;;;;;;;;;;;43.64;2.94;9.9;;;;;5.28;;6.8;13.82;12.3;0.16;;;;;;0.82;XRF;;;2.28;AAS;;;0.51;;0.82;;0.35;;;;;;;;;;;;;;;;;;;;;;;;;;;;;;;;;;;;;;;;;;;;;;;;;;;;;;;;;;;;;;;;;;;;;;;;;;;;;;;;;;;;;;;;;;;;;;;;;;;;;;;;;;;;;;;;;;;;;;;;;;;;;;;;;;;;;;;;;;;;;;;;;;;;;;;;;;;;;;;;;;;;;;;;;;;;;;;;;;;;;;;;;;;;;;;;;;;;;;;;;;;;;;;;;;;;;;;;;;;;;;;;;;;;;;;;;;;;;;;;;;;;;;;;;;;;;;;;;;;;;;;;;;;;;;;;;;;;;;;;;;;;;;;;;;
1982;[874] SCHMINCKE H.-U. (1982);samp. HI4;;CANARY ISLANDS / EL HIERRO / BASAL SERIES;MIRADOR DE LA PENHA;27.8;-18;27.8;-18;;;OUTCROP;;;SUBAERIAL;VOLCANIC ROCK;ANKARAMITE;;;;;;;;;;WHOLE ROCK;;;;;;;;;;;;;;41.6;4.25;9.3;;;;;4.76;;10.5;11.2;13.8;0.19;;;;;;0.93;NOT;;;2.05;NOT;;;0.51;;0.13;;0.05;;;;;;;;;;;;;;;;;;;;;;;;;;;;;;;;;;;;;;;;;;;;;;;;;;;;;;;;623;NOT;;;;;88;NOT;;;;;338;NOT;;;;;68;NOT;;;120;NOT;;;;;;;;;;18;NOT;;;594;NOT;;;26;NOT;;;257;NOT;;;46;NOT;;;;;;;;;;;;331;NOT;;;;;;;;;;;;;;;;;;;;;;;;;;;;;;;;;;;;;;;;;;;;;;;;;;;;;;;;;;;;;;;;;;;;;;;;;;;;;;;;;;;;;;;;;;;;;;;;;;;;;;;;;;;;;;;;;;;;;;;;;;;;;;;;;;;;;;;;;;;;;;;;;;;;;;;;;;;;;;;;;;;;;;;;;;;
1975;[897] BRANDLE J. L. (1975);samp. 25.336ILM;11832;CANARY ISLANDS / TENERIFE / ANTIGUA FORMATION;CREST BETWEEN PICO DE LOS VILLANOS AND RISCO BLANCO;28.3;-16.6;28.3;-16.6;;;OUTCROP;;;SUBAERIAL;VOLCANIC ROCK;ANKARAMITE;;;;;;;;;;WHOLE ROCK;;;;;;;;;;;;;;;;;;;;;;;;;;;;;;;;;;;;;;;;;;;;;;;;;;;;;;;;;;;;;;;;;;;;;;;;;;;;;;;;;;;;;;;;;;;;;;;;302;XRF;;;720;XRF;;;;;52;XRF;;;;;230;XRF;;;;;56;XRF;;;;;;;;;;;;;;17;XRF;;;412;XRF;;;25;XRF;;;138;XRF;;;;;;;;;;;;;;;;185;XRF;;;28;XRF;;;47;XRF;;;;;;;;;;;;;;;;;;;;;;;;;;;;;;;;;;;;;;;;;;;;;;;;;;;;;;2;XRF;;;;3;XRF;;;;;;;;;;;;;;;;;;;;;;;;;;;;;;;;;;;;;;;;;;;;;;;;;;;;;;;;;;;;;;;;;;;;;;;;;;;;;;;;;;;;;;;;;;;;;;;;;;;;;;;
1975;[897] BRANDLE J. L. (1975);samp. 25.361ILM;11833;CANARY ISLANDS / TENERIFE / ANTIGUA FORMATION;MONTANA DEL DORNAJO;28.3;-16.6;28.3;-16.6;;;OUTCROP;;;SUBAERIAL;VOLCANIC ROCK;ANKARAMITE;;;;;;;;;;WHOLE ROCK;;;;;;;;;;;;;;;;;;;;;;;;;;;;;;;;;;;;;;;;;;;;;;;;;;;;;;;;;;;;;;;;;;;;;;;;;;;;;;;;;;;;;;;;;;;;;;;;366;XRF;;;112;XRF;;;;;42;XRF;;;;;70;XRF;;;;;105;XRF;;;;;;;;;;;;;;22;XRF;;;780;XRF;;;31;XRF;;;210;XRF;;;;;;;;;;;;;;;;448;XRF;;;48;XRF;;;89;XRF;;;;;;;;;;;;;;;;;;;;;;;;;;;;;;;;;;;;;;;;;;;;;;;;;;;;;;7;XRF;;;;8;XRF;;;;;;;;;;;;;;;;;;;;;;;;;;;;;;;;;;;;;;;;;;;;;;;;;;;;;;;;;;;;;;;;;;;;;;;;;;;;;;;;;;;;;;;;;;;;;;;;;;;;;;;
1986;[913] JAVOY M. (1986);samp. F14;;CANARY ISLANDS / FUERTEVENTURA / BASAL COMPLEX;DIKE, BETANCURIA MASSIF, NAJADA NEGROS;28.4;-14;28.4;-14;;;OUTCROP;;;SUBAERIAL;VOLCANIC ROCK;ANKARAMITE;;;;;;;;;;WHOLE ROCK;;;;;;;;;;;;;;;;;;;;;;;;;;;;;;;;;;;;;;;;;;;;;;;;;;;;;;;;;;;;;;;;;;;;;;;;;;;;;;;;;;;;;;;;;;;;;;;;;;;;;;;;;;;;;;;;;;;;;;;;;;;;;;;;;;;;;;;;;;;;;;;;;;;;;;;;;;;;;;;;;;;;;;;;;;;;;;;;;;;;;;;;;;;;;;;;;;;;;;;;;;;;;;;;;;;;;;;;;;;;;;;;;;;;;;;;;;;;;;;;;;;;;;;;;;;;;;;;;;;;;;;;;;;;;;;;;;;;;;;;;;;;;;;;;;;;;;;;;;;;;;0.4;;;;;-84;;;;;;;;;;;;;;;;;;;;;;;;;;;
1986;[913] JAVOY M. (1986);samp. F240;;CANARY ISLANDS / FUERTEVENTURA / BASAL COMPLEX;DIKE, BETANCURIA MASSIF, BCO DE LA PENA;28.4;-14;28.4;-14;;;OUTCROP;;;SUBAERIAL;VOLCANIC ROCK;ANKARAMITE;;;;;;;;;;WHOLE ROCK;;;;;;;;;;;;;;;;;;;;;;;;;;;;;;;;;;;;;;;;;;;;;;;;;;;;;;;;;;;;;;;;;;;;;;;;;;;;;;;;;;;;;;;;;;;;;;;;;;;;;;;;;;;;;;;;;;;;;;;;;;;;;;;;;;;;;;;;;;;;;;;;;;;;;;;;;;;;;;;;;;;;;;;;;;;;;;;;;;;;;;;;;;;;;;;;;;;;;;;;;;;;;;;;;;;;;;;;;;;;;;;;;;;;;;;;;;;;;;;;;;;;;;;;;;;;;;;;;;;;;;;;;;;;;;;;;;;;;;;;;;;;;;;;;;;;;;;;;;;;;;2.9;;;;;-89;;;;;;;;;;;;;;;;;;;;;;;;;;;
1986;[913] JAVOY M. (1986);samp. F20A;;CANARY ISLANDS / FUERTEVENTURA / BASAL COMPLEX;BETANCURIA MASSIF, BARRANCO DE LOS MOZOS;28.4;-14;28.4;-14;;;OUTCROP;;;SUBAERIAL;VOLCANIC ROCK;ANKARAMITE;;;;;;;;;;WHOLE ROCK;;;;;;;;;;;;;;;;;;;;;;;;;;;;;;;;;;;;;;;;;;;;;;;;;;;;;;;;;;;;;;;;;;;;;;;;;;;;;;;;;;;;;;;;;;;;;;;;;;;;;;;;;;;;;;;;;;;;;;;;;;;;;;;;;;;;;;;;;;;;;;;;;;;;;;;;;;;;;;;;;;;;;;;;;;;;;;;;;;;;;;;;;;;;;;;;;;;;;;;;;;;;;;;;;;;;;;;;;;;;;;;;;;;;;;;;;;;;;;;;;;;;;;;;;;;;;;;;;;;;;;;;;;;;;;;;;;;;;;;;;;;;;;;;;;;;;;;;;;;;;;1.3;;;;;-84;;;;;;;;;;;;;;;;;;;;;;;;;;;
1986;[913] JAVOY M. (1986);samp. 60;;CANARY ISLANDS / LA PALMA / TABURIENTE / BASAL COMPLEX;DIKE, CALDERA;28.6;-17.9;28.6;-17.9;;;OUTCROP;;;SUBAERIAL;VOLCANIC ROCK;ANKARAMITE;;;;;;;;FRESH;;WHOLE ROCK;;;;;;;;;;;;;;;;;;;;;;;;;;;;;;;;;;;;;;;;;;;;;;;;;;;;;;;;;;;;;;;;;;;;;;;;;;;;;;;;;;;;;;;;;;;;;;;;;;;;;;;;;;;;;;;;;;;;;;;;;;;;;;;;;;;;;;;;;;;;;;;;;;;;;;;;;;;;;;;;;;;;;;;;;;;;;;;;;;;;;;;;;;;;;;;;;;;;;;;;;;;;;;;;;;;;;;;;;;;;;;;;;;;;;;;;;;;;;;;;;;;;;;;;;;;;;;;;;;;;;;;;;;;;;;;;;;;;;;;;;;;;;;;;;;;;;;;;;;;;;;2.8;;;;;-73;;;;;;;;;;;;;;;;;;;;;;;;;;;
1986;[913] JAVOY M. (1986);samp. TF85;11157;CANARY ISLANDS / TENERIFE;TENO MASSIF;28.3;-16.6;28.3;-16.6;;;OUTCROP;;;SUBAERIAL;VOLCANIC ROCK;ANKARAMITE;;;;;;;;;;WHOLE ROCK;;;;;;;;;;;;;;;;;;;;;;;;;;;;;;;;;;;;;;;;;;;;;;;;;;;;;;;;;;;;;;;;;;;;;;;;;;;;;;;;;;;;;;;;;;;;;;;;;;;;;;;;;;;;;;;;;;;;;;;;;;;;;;;;;;;;;;;;;;;;;;;;;;;;;;;;;;;;;;;;;;;;;;;;;;;;;;;;;;;;;;;;;;;;;;;;;;;;;;;;;;;;;;;;;;;;;;;;;;;;;;;;;;;;;;;;;;;;;;;;;;;;;;;;;;;;;;;;;;;;;;;;;;;;;;;;;;;;;;;;;;;;;;;;;;;;;;;;;;;;;;5.9;;;;;;;;;;;;;;;;;;;;;;;;;;;;;;;;
1986;[913] JAVOY M. (1986);samp. F14;;CANARY ISLANDS / FUERTEVENTURA / BASAL COMPLEX;DIKE, BETANCURIA MASSIF, NAJADA NEGROS;28.4;-14;28.4;-14;;;OUTCROP;;;SUBAERIAL;VOLCANIC ROCK;ANKARAMITE;;;;;;;;;;MINERAL / COMPONENT (INCL. GROUNDMASS);OLIVINE;;;;;PRIMARY;;;;;;;;38.82;;;0.02;;;;0.73;;22.99;0.02;38.9;;;;0.14;;;;;;;;;;;;;;;;;;;;;;;;;;;;;;;;;;;;;;;;;;;;;;;;;;;;;;;;;;;;;;;;;;;;;;;;;;;;;;;;;;;;;;;;;;;;;;;;;;;;;;;;;;;;;;;;;;;;;;;;;;;;;;;;;;;;;;;;;;;;;;;;;;;;;;;;;;;;;;;;;;;;;;;;;;;;;;;;;;;;;;;;;;;;;;;;;;;;;;;;;;;;;;;;;;;;;;;;;;;;;;;;;;;;;;;;;;;;;;;;;;;;;;;;;;;;;;;;;;;;;;;;;;;;;;;;;;;;;;;;;;;;;;;;;;;;;;;;;;;;;;;;;
1986;[913] JAVOY M. (1986);samp. F14;;CANARY ISLANDS / FUERTEVENTURA / BASAL COMPLEX;DIKE, BETANCURIA MASSIF, NAJADA NEGROS;28.4;-14;28.4;-14;;;OUTCROP;;;SUBAERIAL;VOLCANIC ROCK;ANKARAMITE;;;;;;;;;;MINERAL / COMPONENT (INCL. GROUNDMASS);CLINOPYROXENE;;;;;PRIMARY;;;;;;;;51.92;1.08;2.93;0.54;;;;2.01;;3.46;22.83;16.15;0.1;;;;;;;;;;0.31;EMP (EPMA);;;;;;;;;;;;;;;;;;;;;;;;;;;;;;;;;;;;;;;;;;;;;;;;;;;;;;;;;;;;;;;;;;;;;;;;;;;;;;;;;;;;;;;;;;;;;;;;;;;;;;;;;;;;;;;;;;;;;;;;;;;;;;;;;;;;;;;;;;;;;;;;;;;;;;;;;;;;;;;;;;;;;;;;;;;;;;;;;;;;;;;;;;;;;;;;;;;;;;;;;;;;;;;;;;;;;;;;;;;;;;;;;;;;;;;;;;;;;;;;;;;;;;;;;;;;;;;;;;;;;;;;;;;;;;;;;;;;;;;;;;;;;;;;;;;;;;;;;
1986;[913] JAVOY M. (1986);samp. F14;;CANARY ISLANDS / FUERTEVENTURA / BASAL COMPLEX;DIKE, BETANCURIA MASSIF, NAJADA NEGROS;28.4;-14;28.4;-14;;;OUTCROP;;;SUBAERIAL;VOLCANIC ROCK;ANKARAMITE;;;;;;;;;;MINERAL / COMPONENT (INCL. GROUNDMASS);AMPHIBOLE;;;;;PRIMARY;;;;;;;;43.25;3.91;10.25;0.02;;;;;;10.35;11.59;14.9;0.18;;;;;;0.8;EMP (EPMA);;;2.95;EMP (EPMA);;;;;;;;;;;;;;;;;;;;;;;;;;;;;;;;;;;;;;;;;;;;;;;;;;;;;;;;;;;;;;;;;;;;;;;;;;;;;;;;;;;;;;;;;;;;;;;;;;;;;;;;;;;;;;;;;;;;;;;;;;;;;;;;;;;;;;;;;;;;;;;;;;;;;;;;;;;;;;;;;;;;;;;;;;;;;;;;;;;;;;;;;;;;;;;;;;;;;;;;;;;;;;;;;;;;;;;;;;;;;;;;;;;;;;;;;;;;;;;;;;;;;;;;;;;;;;;;;;;;;;;;;;;;;;;;;;;;;;;;;;;;;;;;;;;;;;;;;
1986;[913] JAVOY M. (1986);samp. F14;;CANARY ISLANDS / FUERTEVENTURA / BASAL COMPLEX;DIKE, BETANCURIA MASSIF, NAJADA NEGROS;28.4;-14;28.4;-14;;;OUTCROP;;;SUBAERIAL;VOLCANIC ROCK;ANKARAMITE;;;;;;;;;;MINERAL / COMPONENT (INCL. GROUNDMASS);PLAGIOCLASE;;;;;PRIMARY;;;;;;;;52.56;;29.54;;;;;0.48;;;12.7;;;;;;;;0.09;EMP (EPMA);;;4.18;EMP (EPMA);;;;;;;;;;;;;;;;;;;;;;;;;;;;;;;;;;;;;;;;;;;;;;;;;;;;;;;;;;;;;;;;;;;;;;;;;;;;;;;;;;;;;;;;;;;;;;;;;;;;;;;;;;;;;;;;;;;;;;;;;;;;;;;;;;;;;;;;;;;;;;;;;;;;;;;;;;;;;;;;;;;;;;;;;;;;;;;;;;;;;;;;;;;;;;;;;;;;;;;;;;;;;;;;;;;;;;;;;;;;;;;;;;;;;;;;;;;;;;;;;;;;;;;;;;;;;;;;;;;;;;;;;;;;;;;;;;;;;;;;;;;;;;;;;;;;;;;;;
1986;[913] JAVOY M. (1986);samp. F14;;CANARY ISLANDS / FUERTEVENTURA / BASAL COMPLEX;DIKE, BETANCURIA MASSIF, NAJADA NEGROS;28.4;-14;28.4;-14;;;OUTCROP;;;SUBAERIAL;VOLCANIC ROCK;ANKARAMITE;;;;;;;;;;MINERAL / COMPONENT (INCL. GROUNDMASS);PLAGIOCLASE;;;;;PRIMARY;;;;;;;;61.98;;23.67;;;;;0.45;;;5.45;;;;;;;;0.29;EMP (EPMA);;;7.01;EMP (EPMA);;;;;;;;;;;;;;;;;;;;;;;;;;;;;;;;;;;;;;;;;;;;;;;;;;;;;;;;;;;;;;;;;;;;;;;;;;;;;;;;;;;;;;;;;;;;;;;;;;;;;;;;;;;;;;;;;;;;;;;;;;;;;;;;;;;;;;;;;;;;;;;;;;;;;;;;;;;;;;;;;;;;;;;;;;;;;;;;;;;;;;;;;;;;;;;;;;;;;;;;;;;;;;;;;;;;;;;;;;;;;;;;;;;;;;;;;;;;;;;;;;;;;;;;;;;;;;;;;;;;;;;;;;;;;;;;;;;;;;;;;;;;;;;;;;;;;;;;;
1990;[961] ANCOCHEA E. (1990);samp. R.10715;;CANARY ISLANDS / TENERIFE / OLD BASALT SERIES;TENO MASSIF, PISTA DEL FARO-TOSCON;28.3;-16.8;28.3;-16.8;120;120;OUTCROP;;;SUBAERIAL;VOLCANIC ROCK;ANKARAMITE;;;;;;;;;;WHOLE ROCK;;;;;;;;;;;;;;;;;;;;;;;;;;;;;;;;;;;;;;;;;;;;;;;;;;;;;;;;;;;0.866;AAS;;;;;;;;;;;;;;;;;;;;;;;;;;;0.4;;;;;;;;;;;;;;;;;;;;;;;;;;;;;;;;;;;;;;;;;;;;;;;;;;;;;;;;;;;;;;;;;;;;;;;;;;;;;;;;;;;;;;;;;;;;;;;;;;;;;;;;;;;;;;;;;;;;;;;;;;;;;;;;;;;;;;;;;;;;;;;;;;;;;;;;;;;;;;;;;;;;;;;;;;;;;;;;;;;;;;;;;;;;;;;;;;;;;;;;;;;;;;;;;;;;;;;;;;;;;;;;;;;;;;;;;;;6700;;;;;;;;;;;;
1970;[970] GUNN B. M. (1970);samp. CE0172;;CROZET ISLANDS / ILE DE L^EST;EAST OF BAIE DU NAUFRAGE;-46.5;52.15;-46.5;52.15;;;OUTCROP;;;SUBAERIAL;VOLCANIC ROCK;ANKARAMITE;;;;;;;;;;WHOLE ROCK;;;;;;;;;;;;;;45.22;2.412;11.29;;;;12.66;;;;10.87;13.84;0.163;;;;;;1;XRF;;;2.18;AAS;;;0.37;;;;;;;;;;;;;;;;;;;;;;;;;;;;;;;;;;;;;;;;;;;;;;;;;;;;;;;;;;;;646.6;XRF;;;;;;;;;;;390.1;XRF;;;;;85.4;XRF;;;;;;;;;;;;;;23.5;XRF;;;421.7;XRF;;;;;;;;;;;;;;;;;;;;;;;;217.3;XRF;;;;;;;;;;;;;;;;;;;;;;;;;;;;;;;;;;;;;;;;;;;;;;;;;;;;;;;;;;;;;;5.1;XRF;;;;3.8;XRF;;;;;;;;;;;;;;;;;;;;;;;;;;;;;;;;;;;;;;;;;;;;;;;;;;;;;;;;;;;;;;;;;;;;;;;;;;;;;;;;;;;;;;;;;;;;;;;;;;;;;;;
1970;[970] GUNN B. M. (1970);samp. CE0140;;CROZET ISLANDS / ILE DE L^EST;EAST OF BAIE DU NAUFRAGE;-46.5;52.15;-46.5;52.15;;;OUTCROP;;;SUBAERIAL;VOLCANIC ROCK;ANKARAMITE;;;;;;;;;;WHOLE ROCK;;;;;;;;;;;;;;46.33;2.341;11.29;;;;12;;;;10.79;13.55;0.16;;;;;;0.99;XRF;;;2.17;AAS;;;0.38;;;;;;;;;;;;;;;;;;;;;;;;;;;;;;;;;;;;;;;;;;;;;;;;;;;;;;;;;;;;695.4;XRF;;;;;;;;;;;354.8;XRF;;;;;64.7;XRF;;;;;;;;;;;;;;24.2;XRF;;;420.4;XRF;;;;;;;;;;;;;;;;;;;;;;;;222.8;XRF;;;;;;;;;;;;;;;;;;;;;;;;;;;;;;;;;;;;;;;;;;;;;;;;;;;;;;;;;;;;;;5.2;XRF;;;;2.1;XRF;;;;;;;;;;;;;;;;;;;;;;;;;;;;;;;;;;;;;;;;;;;;;;;;;;;;;;;;;;;;;;;;;;;;;;;;;;;;;;;;;;;;;;;;;;;;;;;;;;;;;;;
1970;[970] GUNN B. M. (1970);samp. CE0021;20838;CROZET ISLANDS / ILE DE L^EST;PENGUIN FALLS;-46.5;52.15;-46.5;52.15;;;OUTCROP;;;SUBAERIAL;VOLCANIC ROCK;ANKARAMITE;;;9000000;9000000;MIOCENE;;;;;WHOLE ROCK;;;;;;;;;;;;;;44.77;2.556;11.11;;;;12.72;;;;11.87;13.32;0.154;;;;;;0.94;XRF;;;2.19;AAS;;;0.37;;;;;;;;;;;;;;;;;;;;;;;;;;;;;;;;;;;;;;;;;;;;;;;;;;;;;;;;;;;;462.2;XRF;;;;;;;;;;;346.2;XRF;;;;;93.2;XRF;;;;;;;;;;;;;;25.6;XRF;;;424.1;XRF;;;;;;;;;;;;;;;;;;;;;;;;210.1;XRF;;;;;;;;;;;;;;;;;;;;;;;;;;;;;;;;;;;;;;;;;;;;;;;;;;;;;;;;;;;;;;5.5;XRF;;;;2.9;XRF;;;;;;;;;;;;;;;;;;;;;;;;;;;;;;;;;;;;;;;;;;;;;;;;;;;;;;;;;;;;;;;;;;;;;;;;;;;;;;;;;;;;;;;;;;;;;;;;;;;;;;;
1970;[970] GUNN B. M. (1970);samp. CE0320;;CROZET ISLANDS / ILE DE L^EST;;-46.5;52.15;-46.5;52.15;;;OUTCROP;;;SUBAERIAL;VOLCANIC ROCK;ANKARAMITE;;;;;;;;;;WHOLE ROCK;;;;;;;;;;;;;;46.25;2.531;12.02;;;;12.7;;;;11.6;11.31;0.158;;;;;;0.93;XRF;;;2.13;AAS;;;0.37;;;;;;;;;;;;;;;;;;;;;;;;;;;;;;;;;;;;;;;;;;;;;;;;;;;;;;;;;;;;480;XRF;;;;;;;;;;;231.8;XRF;;;;;85.3;XRF;;;;;;;;;;;;;;23.1;XRF;;;441.7;XRF;;;;;;;;;;;;;;;;;;;;;;;;206.5;XRF;;;;;;;;;;;;;;;;;;;;;;;;;;;;;;;;;;;;;;;;;;;;;;;;;;;;;;;;;;;;;;5.7;XRF;;;;0;XRF;;;;;;;;;;;;;;;;;;;;;;;;;;;;;;;;;;;;;;;;;;;;;;;;;;;;;;;;;;;;;;;;;;;;;;;;;;;;;;;;;;;;;;;;;;;;;;;;;;;;;;;
1970;[970] GUNN B. M. (1970);samp. CE0384;;CROZET ISLANDS / ILE DE L^EST;;-46.5;52.15;-46.5;52.15;;;OUTCROP;;;SUBAERIAL;VOLCANIC ROCK;ANKARAMITE;;;;;;;;;;WHOLE ROCK;;;;;;;;;;;;;;46.92;2.516;13.08;;;;12.48;;;;10.32;10.26;0.162;;;;;;1.23;XRF;;;2.56;AAS;;;0.47;;;;;;;;;;;;;;;;;;;;;;;;;;;;;;;;;;;;;;;;;;;;;;;;;;;;;;;;;;;;373.8;XRF;;;;;;;;;;;221.4;XRF;;;;;78.5;XRF;;;;;;;;;;;;;;31.8;XRF;;;494.9;XRF;;;;;;;;;;;;;;;;;;;;;;;;249.2;XRF;;;;;;;;;;;;;;;;;;;;;;;;;;;;;;;;;;;;;;;;;;;;;;;;;;;;;;;;;;;;;;6.1;XRF;;;;0.8;XRF;;;;;;;;;;;;;;;;;;;;;;;;;;;;;;;;;;;;;;;;;;;;;;;;;;;;;;;;;;;;;;;;;;;;;;;;;;;;;;;;;;;;;;;;;;;;;;;;;;;;;;;
1970;[970] GUNN B. M. (1970);samp. CE0061;;CROZET ISLANDS / ILE DE L^EST;PIC SANS NOM, BAY OF ABUNDANCE;-46.5;52.15;-46.5;52.15;;;OUTCROP;;;SUBAERIAL;VOLCANIC ROCK;ANKARAMITE;;;;;;;;;;WHOLE ROCK;;;;;;;;;;;;;;47.49;2.575;12.66;;;;12.48;;;;11.96;9.18;0.162;;;;;;0.95;XRF;;;2.17;AAS;;;0.37;;;;;;;;;;;;;;;;;;;;;;;;;;;;;;;;;;;;;;;;;;;;;;;;;;;;;;;;;;;;224.5;XRF;;;;;;;;;;;161.3;XRF;;;;;124.4;XRF;;;;;;;;;;;;;;21.2;XRF;;;425.9;XRF;;;;;;;;;;;;;;;;;;;;;;;;215;XRF;;;;;;;;;;;;;;;;;;;;;;;;;;;;;;;;;;;;;;;;;;;;;;;;;;;;;;;;;;;;;;6.5;XRF;;;;3.3;XRF;;;;;;;;;;;;;;;;;;;;;;;;;;;;;;;;;;;;;;;;;;;;;;;;;;;;;;;;;;;;;;;;;;;;;;;;;;;;;;;;;;;;;;;;;;;;;;;;;;;;;;;
1970;[970] GUNN B. M. (1970);samp. CE0282;;CROZET ISLANDS / ILE DE L^EST;;-46.5;52.15;-46.5;52.15;;;OUTCROP;;;SUBAERIAL;VOLCANIC ROCK;ANKARAMITE;;;;;;;;;;WHOLE ROCK;;;;;;;;;;;;;;45.98;2.85;12.74;;;;13.08;;;;13.31;8.31;0.166;;;;;;1.06;XRF;;;2.11;AAS;;;0.38;;;;;;;;;;;;;;;;;;;;;;;;;;;;;;;;;;;;;;;;;;;;;;;;;;;;;;;;;;;;218.6;XRF;;;;;;;;;;;133.1;XRF;;;;;108.1;XRF;;;;;;;;;;;;;;23.2;XRF;;;467.1;XRF;;;;;;;;;;;;;;;;;;;;;;;;224.5;XRF;;;;;;;;;;;;;;;;;;;;;;;;;;;;;;;;;;;;;;;;;;;;;;;;;;;;;;;;;;;;;;6.3;XRF;;;;1.8;XRF;;;;;;;;;;;;;;;;;;;;;;;;;;;;;;;;;;;;;;;;;;;;;;;;;;;;;;;;;;;;;;;;;;;;;;;;;;;;;;;;;;;;;;;;;;;;;;;;;;;;;;;
1970;[970] GUNN B. M. (1970);samp. CE0016;70879;CROZET ISLANDS / ILE DE L^EST;PENGUIN FALLS;-46.5;52.15;-46.5;52.15;;;OUTCROP;;;SUBAERIAL;VOLCANIC ROCK;ANKARAMITE;;;9000000;9000000;MIOCENE;;;;;WHOLE ROCK;;;;;;;;;;;;;;44.49;2.527;10.79;;;;13.28;;;;12.1;13.34;0.16;;;;;;0.92;XRF;;;2.03;AAS;;;0.35;;;;;;;;;;;;;;;;;;;;;;;;;;;;;;;;;;;;;;;;;;;;;;;;;;;;;;;;;;;;529;XRF;;;;;;;;;;;360.9;XRF;;;;;98.4;XRF;;;;;;;;;;;;;;24.1;XRF;;;418.6;XRF;;;;;;;;;;;;;;;;;;;;;;;;197.3;XRF;;;;;;;;;;;;;;;;;;;;;;;;;;;;;;;;;;;;;;;;;;;;;;;;;;;;;;;;;;;;;;4.6;XRF;;;;3.4;XRF;;;;;;;;;;;;;;;;;;;;;;;;;;;;;;;;;;;;;;;;;;;;;;;;;;;;;;;;;;;;;;;;;;;;;;;;;;;;;;;;;;;;;;;;;;;;;;;;;;;;;;;
1970;[970] GUNN B. M. (1970);samp. CE0031;;CROZET ISLANDS / ILE DE L^EST;PIC SANS NOM, BAY OF ABUNDANCE;-46.5;52.15;-46.5;52.15;;;OUTCROP;;;SUBAERIAL;VOLCANIC ROCK;ANKARAMITE;;;;;;;;;;WHOLE ROCK;;;;;;;;;;;;;;46.72;2.448;11.12;;;;12.67;;;;13.92;9.79;0.165;;;;;;0.83;XRF;;;1.99;AAS;;;0.34;;;;;;;;;;;;;;;;;;;;;;;;;;;;;;;;;;;;;;;;;;;;;;;;;;;;;;;;;;;;309.6;XRF;;;;;;;;;;;155.6;XRF;;;;;108.1;XRF;;;;;;;;;;;;;;18.5;XRF;;;382.8;XRF;;;;;;;;;;;;;;;;;;;;;;;;186.7;XRF;;;;;;;;;;;;;;;;;;;;;;;;;;;;;;;;;;;;;;;;;;;;;;;;;;;;;;;;;;;;;;4.8;XRF;;;;3.4;XRF;;;;;;;;;;;;;;;;;;;;;;;;;;;;;;;;;;;;;;;;;;;;;;;;;;;;;;;;;;;;;;;;;;;;;;;;;;;;;;;;;;;;;;;;;;;;;;;;;;;;;;;
1970;[970] GUNN B. M. (1970);samp. CE0032;;CROZET ISLANDS / ILE DE L^EST;PIC SANS NOM, BAY OF ABUNDANCE;-46.5;52.15;-46.5;52.15;;;OUTCROP;;;SUBAERIAL;VOLCANIC ROCK;ANKARAMITE;;;;;;;;;;WHOLE ROCK;;;;;;;;;;;;;;46.71;2.369;10.75;;;;12.38;;;;14.28;10.31;0.162;;;;;;0.78;XRF;;;1.94;AAS;;;0.32;;;;;;;;;;;;;;;;;;;;;;;;;;;;;;;;;;;;;;;;;;;;;;;;;;;;;;;;;;;;408.7;XRF;;;;;;;;;;;163.7;XRF;;;;;107.2;XRF;;;;;;;;;;;;;;16.3;XRF;;;367.2;XRF;;;;;;;;;;;;;;;;;;;;;;;;174;XRF;;;;;;;;;;;;;;;;;;;;;;;;;;;;;;;;;;;;;;;;;;;;;;;;;;;;;;;;;;;;;;3.7;XRF;;;;3.4;XRF;;;;;;;;;;;;;;;;;;;;;;;;;;;;;;;;;;;;;;;;;;;;;;;;;;;;;;;;;;;;;;;;;;;;;;;;;;;;;;;;;;;;;;;;;;;;;;;;;;;;;;;
1970;[970] GUNN B. M. (1970);samp. CE0054;;CROZET ISLANDS / ILE DE L^EST;PIC SANS NOM, BAY OF ABUNDANCE;-46.5;52.15;-46.5;52.15;;;OUTCROP;;;SUBAERIAL;VOLCANIC ROCK;ANKARAMITE;;;;;;;;;;WHOLE ROCK;;;;;;;;;;;;;;44.08;2.739;11.74;;;;14.71;;;;13.82;9.04;0.189;;;;;;1.08;XRF;;;2.2;AAS;;;0.41;;;;;;;;;;;;;;;;;;;;;;;;;;;;;;;;;;;;;;;;;;;;;;;;;;;;;;;;;;;;278.8;XRF;;;;;;;;;;;162;XRF;;;;;118.9;XRF;;;;;;;;;;;;;;19.7;XRF;;;461.8;XRF;;;;;;;;;;;;;;;;;;;;;;;;215.6;XRF;;;;;;;;;;;;;;;;;;;;;;;;;;;;;;;;;;;;;;;;;;;;;;;;;;;;;;;;;;;;;;5.1;XRF;;;;2.9;XRF;;;;;;;;;;;;;;;;;;;;;;;;;;;;;;;;;;;;;;;;;;;;;;;;;;;;;;;;;;;;;;;;;;;;;;;;;;;;;;;;;;;;;;;;;;;;;;;;;;;;;;;