Year;CITATION;SAMPLE NAME;UNIQUE_ID;LOCATION;LOCATION COMMENT;LATITUDE (MIN.);LONGITUDE (MIN.);LATITUDE (MAX.);LONGITUDE (MAX.);ELEVATION (MIN.);ELEVATION (MAX.);SAMPLING TECHNIQUE;DRILLING DEPTH (MIN.);DRILLING DEPTH (MAX.);LAND/SEA (SAMPLING);ROCK TYPE;ROCK NAME;ROCK TEXTURE;SAMPLE COMMENT;AGE (MIN.);AGE (MAX.);GEOLOGICAL AGE;GEOLOGICAL AGE PREFIX;ERUPTION YEAR;ALTERATION;ALTERATION TYPE;TYPE OF MATERIAL;MINERAL / COMPONENT;SPOT (MINERAL);CRYSTAL;RIM / CORE (MINERAL GRAINS);GRAIN SIZE;PRIMARY/SECONDARY;INCLUSION TYPE;SPOT (INCLUSION);MINERAL (INCLUSION);RIM / CORE (INCLUSION);HOSTMINERAL (INCLUSION);HEATING;HEATING TEMPERATURE (?C);SIO2(WT%);TIO2(WT%);AL2O3(WT%);CR2O3(WT%);V2O3(WT%);V2O5(WT%);FE2O3T(WT%);FE2O3(WT%);FEOT(WT%);FEO(WT%);CAO(WT%);MGO(WT%);MNO(WT%);BAO(WT%);SRO(WT%);NIO(WT%);ZNO(WT%);COO(WT%);K2O(WT%);;;;NA2O(WT%);;;;P2O5(WT%);H2O(WT%);H2OP(WT%);H2OM(WT%);CO2(WT%);F(WT%);CL(WT%);CL2(WT%);SO3(WT%);S(WT%);LOI(WT%);O(WT%);SI(WT%);AL(WT%);TI(WT%);FE(WT%);MG(WT%);MN(WT%);CA(WT%);K(WT%): altern. values or methods;;;;NA(WT%);CR(WT%);NI(WT%);HE(CCMSTP/G);HE3(CCMSTP/G);HE4(CCMSTP/G): altern. values or methods;;;;LI(PPM);BE(PPM);B(PPM);F(PPM);NE20(CCMSTP/G);NE22(CCMSTP/G);P(PPM);S(PPM);CL(PPM);AR36(CCMSTP/G);AR40(CCMSTP/G);AR40(MOL/G): altern. values or methods;;;;AR40(PPB);K(PPM);SC(PPM): altern. values or methods;;;;;;TI(PPM);V(PPM): altern. values or methods;;;;CR(PPM): altern. values or methods;;;;MN(PPM);FE(PPM);CO(PPM): altern. values or methods;;;;;;NI(PPM): altern. values or methods;;;;;;CU(PPM): altern. values or methods;;;;ZN(PPM): altern. values or methods;;;;GA(PPM): altern. values or methods;;;;GE(PPM);AS(PPM);KR84(CCMSTP/G);RB(PPM): altern. values or methods;;;;SR(PPM): altern. values or methods;;;;Y(PPM): altern. values or methods;;;;ZR(PPM): altern. values or methods;;;;NB(PPM): altern. values or methods;;;;MO(PPM);RU(PPB);RH(PPB);PD(PPB);IN(PPM);SN(PPM);SB(PPM);XE132(CCMSTP/G);CS(PPM);BA(PPM): altern. values or methods;;;;LA(PPM): altern. values or methods;;;;CE(PPM): altern. values or methods;;;;PR(PPM): altern. values or methods;;;;ND(PPM): altern. values or methods;;;;SM(PPM): altern. values or methods;;;;EU(PPM): altern. values or methods;;;;GD(PPM);TB(PPM): altern. values or methods;;;;DY(PPM);HO(PPM);ER(PPM);TM(PPM);YB(PPM): altern. values or methods;;;;LU(PPM);HF(PPM): altern. values or methods;;;;TA(PPM);W(PPM);RE(PPB): altern. values or methods;;;;RE(PPT);OS(PPB): altern. values or methods;;;;OS(PPT);IR(PPB);PT(PPB);AU(PPB);HG(PPB);TL(PPM);PB(PPM): altern. values or methods;;;;PB210_ACT(DPM/G);TH(PPM): altern. values or methods;;;;TH(PPB);U(PPM): altern. values or methods;;;;U(PPB);CO2(PPM);H2O(PPM);ND143_ND144;ND148_ND144;SM147_ND144;SR87_SR86;RB87_SR86;PB206_PB204: altern. values or methods;;;;PB206_PB207;PB206_PB208;PB207_PB204: altern. values or methods;;;;PB207_PB206;PB208_PB204: altern. values or methods;;;;PB208_PB206;OS187_OS186;OS187_OS188: altern. values or methods;;;;RE187_OS188: altern. values or methods;;;;HF176_HF177;HE3_HE4;HE3_HE4(R/R(A)): altern. values or methods;;;;HE4_HE3: altern. values or methods;;;;;;HE4_HE3(R/R(A)): altern. values or methods;;;;AR38_AR36;AR40_AR36;NE20_NE22;NE21_NE22;XE129_XE132;PB206_U238;PB207_U235;PB210_U238;TH232_U238;U238_PB204;D13C(VS SMOW);D17O(VS VSMOW);D18O(PER MIL);D18O(VS PDB);D18O(VS SMOW);D18O(VS VSMOW);D34S(VS CDT);D44_40CA(VS SRM915A);D56FE(VS IRMM-014);DD(VS SMOW);ALBITE(MOL%);ACMITE(MOL%);ANORTHITE(MOL%);ENSTATITE(MOL%);FAYALITE(MOL%);FORSTERITE(MOL%);FERROSILITE(MOL%);HEMATITE(MOL%);LARNITE(MOL%);ORTHOCLASE(MOL%);PSEUDOBROOKITE(MOL%);TEPHROITE(MOL%);ULVOSPINEL(MOL%);WOLLASTONITE(MOL%);AGE(KA);AGE(MA): altern. values or methods;;;;;;;;AGE_PB207_PB206(MA);AGE_PB207_U235(MA);AGE_PB206_U238(MA);
2010;[14544] ROGERS N. W.(2010)  [GeoReM [5149] ];samp. 01.03.24.07;;ETHIOPIAN PLATEAU / NORTHERN ETHIOPIAN PLATEAU / DILB SECTION;;11.92;39.36;11.96;39.42;;;OUTCROP;;;SUBAERIAL;VOLCANIC ROCK;ANKARAMITE;;;30000000;30000000;OLIGOCENE;;;;;MINERAL / COMPONENT (INCL. GROUNDMASS);CLINOPYROXENE;;;;;PRIMARY;;;;;;;;48.467;1.511;3.066;0.28;;;;;7.564;;21.037;15.486;0.174;;;0.036;;;0.003;EMP (EPMA);;;0.35;EMP (EPMA);;;0;;;;;;;;;;;;;;;;;;;;;;;;;;;;;;;;;;;;;;;;;;;;;;;;;;;;;;;;;;;;;;;;;;;;;;;;;;;;;;;;;;;;;;;;;;;;;;;;;;;;;;;;;;;;;;;;;;;;;;;;;;;;;;;;;;;;;;;;;;;;;;;;;;;;;;;;;;;;;;;;;;;;;;;;;;;;;;;;;;;;;;;;;;;;;;;;;;;;;;;;;;;;;;;;;;;;;;;;;;;;;;;;;;;;;;;;;;;;;;;;;;;;;;;;;;;;;;;;;;;;;;;;;;;;;;;44.4371069534746;;;12.1763628149882;;;;;;;43.3865302315372;;;;;;;;;;;;;
2010;[14544] ROGERS N. W.(2010)  [GeoReM [5149] ];samp. 01.03.24.07;;ETHIOPIAN PLATEAU / NORTHERN ETHIOPIAN PLATEAU / DILB SECTION;;11.92;39.36;11.96;39.42;;;OUTCROP;;;SUBAERIAL;VOLCANIC ROCK;ANKARAMITE;;;30000000;30000000;OLIGOCENE;;;;;MINERAL / COMPONENT (INCL. GROUNDMASS);CLINOPYROXENE;;;;;PRIMARY;;;;;;;;49.525;1.254;2.746;0.512;;;;;7.004;;20.784;15.969;0.177;;;0.038;;;0.001;EMP (EPMA);;;0.313;EMP (EPMA);;;0.021;;;;;;;;;;;;;;;;;;;;;;;;;;;;;;;;;;;;;;;;;;;;;;;;;;;;;;;;;;;;;;;;;;;;;;;;;;;;;;;;;;;;;;;;;;;;;;;;;;;;;;;;;;;;;;;;;;;;;;;;;;;;;;;;;;;;;;;;;;;;;;;;;;;;;;;;;;;;;;;;;;;;;;;;;;;;;;;;;;;;;;;;;;;;;;;;;;;;;;;;;;;;;;;;;;;;;;;;;;;;;;;;;;;;;;;;;;;;;;;;;;;;;;;;;;;;;;;;;;;;;;;;;;;;;;;45.8401708511825;;;11.2790931223628;;;;;;;42.8807360264547;;;;;;;;;;;;;
2010;[14544] ROGERS N. W.(2010)  [GeoReM [5149] ];samp. 01.03.24.07;;ETHIOPIAN PLATEAU / NORTHERN ETHIOPIAN PLATEAU / DILB SECTION;;11.92;39.36;11.96;39.42;;;OUTCROP;;;SUBAERIAL;VOLCANIC ROCK;ANKARAMITE;;;30000000;30000000;OLIGOCENE;;;;;MINERAL / COMPONENT (INCL. GROUNDMASS);CLINOPYROXENE;;;;;PRIMARY;;;;;;;;51.179;0.928;1.672;0.496;;;;;5.503;;21.57;17.088;0.119;;;0.04;;;0.002;EMP (EPMA);;;0.279;EMP (EPMA);;;0.024;;;;;;;;;;;;;;;;;;;;;;;;;;;;;;;;;;;;;;;;;;;;;;;;;;;;;;;;;;;;;;;;;;;;;;;;;;;;;;;;;;;;;;;;;;;;;;;;;;;;;;;;;;;;;;;;;;;;;;;;;;;;;;;;;;;;;;;;;;;;;;;;;;;;;;;;;;;;;;;;;;;;;;;;;;;;;;;;;;;;;;;;;;;;;;;;;;;;;;;;;;;;;;;;;;;;;;;;;;;;;;;;;;;;;;;;;;;;;;;;;;;;;;;;;;;;;;;;;;;;;;;;;;;;;;;47.8948958870565;;;8.65280764190494;;;;;;;43.4522964710386;;;;;;;;;;;;;
2010;[14544] ROGERS N. W.(2010)  [GeoReM [5149] ];samp. 01.03.24.07;;ETHIOPIAN PLATEAU / NORTHERN ETHIOPIAN PLATEAU / DILB SECTION;;11.92;39.36;11.96;39.42;;;OUTCROP;;;SUBAERIAL;VOLCANIC ROCK;ANKARAMITE;;;30000000;30000000;OLIGOCENE;;;;;MINERAL / COMPONENT (INCL. GROUNDMASS);CLINOPYROXENE;;;;;PRIMARY;;;;;;;;47.901;1.565;3.38;0.095;;;;;7.982;;20.573;15.186;0.183;;;0.034;;;0.004;EMP (EPMA);;;0.353;EMP (EPMA);;;0.024;;;;;;;;;;;;;;;;;;;;;;;;;;;;;;;;;;;;;;;;;;;;;;;;;;;;;;;;;;;;;;;;;;;;;;;;;;;;;;;;;;;;;;;;;;;;;;;;;;;;;;;;;;;;;;;;;;;;;;;;;;;;;;;;;;;;;;;;;;;;;;;;;;;;;;;;;;;;;;;;;;;;;;;;;;;;;;;;;;;;;;;;;;;;;;;;;;;;;;;;;;;;;;;;;;;;;;;;;;;;;;;;;;;;;;;;;;;;;;;;;;;;;;;;;;;;;;;;;;;;;;;;;;;;;;;44.0809448081741;;;12.9980666762761;;;;;;;42.9209885155498;;;;;;;;;;;;;
2010;[14544] ROGERS N. W.(2010)  [GeoReM [5149] ];samp. 01.03.24.07;;ETHIOPIAN PLATEAU / NORTHERN ETHIOPIAN PLATEAU / DILB SECTION;;11.92;39.36;11.96;39.42;;;OUTCROP;;;SUBAERIAL;VOLCANIC ROCK;ANKARAMITE;;;30000000;30000000;OLIGOCENE;;;;;MINERAL / COMPONENT (INCL. GROUNDMASS);CLINOPYROXENE;;;;;PRIMARY;;;;;;;;50.718;1.072;2.407;0.355;;;;;6.961;;21.251;16.178;0.164;;;0.05;;;0.003;EMP (EPMA);;;0.279;EMP (EPMA);;;0.013;;;;;;;;;;;;;;;;;;;;;;;;;;;;;;;;;;;;;;;;;;;;;;;;;;;;;;;;;;;;;;;;;;;;;;;;;;;;;;;;;;;;;;;;;;;;;;;;;;;;;;;;;;;;;;;;;;;;;;;;;;;;;;;;;;;;;;;;;;;;;;;;;;;;;;;;;;;;;;;;;;;;;;;;;;;;;;;;;;;;;;;;;;;;;;;;;;;;;;;;;;;;;;;;;;;;;;;;;;;;;;;;;;;;;;;;;;;;;;;;;;;;;;;;;;;;;;;;;;;;;;;;;;;;;;;45.7564281720019;;;11.0448152613481;;;;;;;43.19875656665;;;;;;;;;;;;;
2010;[14544] ROGERS N. W.(2010)  [GeoReM [5149] ];samp. 01.03.24.07;;ETHIOPIAN PLATEAU / NORTHERN ETHIOPIAN PLATEAU / DILB SECTION;;11.92;39.36;11.96;39.42;;;OUTCROP;;;SUBAERIAL;VOLCANIC ROCK;ANKARAMITE;;;30000000;30000000;OLIGOCENE;;;;;MINERAL / COMPONENT (INCL. GROUNDMASS);CLINOPYROXENE;;;;;PRIMARY;;;;;;;;50.907;1.077;2.101;0.351;;;;;6.182;;20.98;16.864;0.153;;;0.045;;;0;EMP (EPMA);;;0.268;EMP (EPMA);;;0.03;;;;;;;;;;;;;;;;;;;;;;;;;;;;;;;;;;;;;;;;;;;;;;;;;;;;;;;;;;;;;;;;;;;;;;;;;;;;;;;;;;;;;;;;;;;;;;;;;;;;;;;;;;;;;;;;;;;;;;;;;;;;;;;;;;;;;;;;;;;;;;;;;;;;;;;;;;;;;;;;;;;;;;;;;;;;;;;;;;;;;;;;;;;;;;;;;;;;;;;;;;;;;;;;;;;;;;;;;;;;;;;;;;;;;;;;;;;;;;;;;;;;;;;;;;;;;;;;;;;;;;;;;;;;;;;47.6236334690734;;;9.79378289237456;;;;;;;42.5825836385521;;;;;;;;;;;;;
2010;[14544] ROGERS N. W.(2010)  [GeoReM [5149] ];samp. 01.03.24.07;;ETHIOPIAN PLATEAU / NORTHERN ETHIOPIAN PLATEAU / DILB SECTION;;11.92;39.36;11.96;39.42;;;OUTCROP;;;SUBAERIAL;VOLCANIC ROCK;ANKARAMITE;;;30000000;30000000;OLIGOCENE;;;;;MINERAL / COMPONENT (INCL. GROUNDMASS);CLINOPYROXENE;;;;;PRIMARY;;;;;;;;52.224;0.915;1.838;0.81;;;;;5.108;;21.574;17.146;0.117;;;0.064;;;0.001;EMP (EPMA);;;0.278;EMP (EPMA);;;0.007;;;;;;;;;;;;;;;;;;;;;;;;;;;;;;;;;;;;;;;;;;;;;;;;;;;;;;;;;;;;;;;;;;;;;;;;;;;;;;;;;;;;;;;;;;;;;;;;;;;;;;;;;;;;;;;;;;;;;;;;;;;;;;;;;;;;;;;;;;;;;;;;;;;;;;;;;;;;;;;;;;;;;;;;;;;;;;;;;;;;;;;;;;;;;;;;;;;;;;;;;;;;;;;;;;;;;;;;;;;;;;;;;;;;;;;;;;;;;;;;;;;;;;;;;;;;;;;;;;;;;;;;;;;;;;;48.2749233892305;;;8.06806151041781;;;;;;;43.6570151003517;;;;;;;;;;;;;
2010;[14544] ROGERS N. W.(2010)  [GeoReM [5149] ];samp. 01.03.24.07;;ETHIOPIAN PLATEAU / NORTHERN ETHIOPIAN PLATEAU / DILB SECTION;;11.92;39.36;11.96;39.42;;;OUTCROP;;;SUBAERIAL;VOLCANIC ROCK;ANKARAMITE;;;30000000;30000000;OLIGOCENE;;;;;MINERAL / COMPONENT (INCL. GROUNDMASS);CLINOPYROXENE;;;;;PRIMARY;;;;;;;;51.953;0.842;1.661;0.57;;;;;5.24;;21.773;17.181;0.116;;;0.06;;;0.002;EMP (EPMA);;;0.241;EMP (EPMA);;;0.02;;;;;;;;;;;;;;;;;;;;;;;;;;;;;;;;;;;;;;;;;;;;;;;;;;;;;;;;;;;;;;;;;;;;;;;;;;;;;;;;;;;;;;;;;;;;;;;;;;;;;;;;;;;;;;;;;;;;;;;;;;;;;;;;;;;;;;;;;;;;;;;;;;;;;;;;;;;;;;;;;;;;;;;;;;;;;;;;;;;;;;;;;;;;;;;;;;;;;;;;;;;;;;;;;;;;;;;;;;;;;;;;;;;;;;;;;;;;;;;;;;;;;;;;;;;;;;;;;;;;;;;;;;;;;;;48.032564246073;;;8.2182275042516;;;;;;;43.7492082496754;;;;;;;;;;;;;
2010;[14544] ROGERS N. W.(2010)  [GeoReM [5149] ];samp. 01.03.24.07;;ETHIOPIAN PLATEAU / NORTHERN ETHIOPIAN PLATEAU / DILB SECTION;;11.92;39.36;11.96;39.42;;;OUTCROP;;;SUBAERIAL;VOLCANIC ROCK;ANKARAMITE;;;30000000;30000000;OLIGOCENE;;;;;MINERAL / COMPONENT (INCL. GROUNDMASS);CLINOPYROXENE;;;;;PRIMARY;;;;;;;;49.783;1.285;2.407;0.615;;;;;6.199;;21.237;16.346;0.134;;;0.037;;;0.001;EMP (EPMA);;;0.329;EMP (EPMA);;;0.001;;;;;;;;;;;;;;;;;;;;;;;;;;;;;;;;;;;;;;;;;;;;;;;;;;;;;;;;;;;;;;;;;;;;;;;;;;;;;;;;;;;;;;;;;;;;;;;;;;;;;;;;;;;;;;;;;;;;;;;;;;;;;;;;;;;;;;;;;;;;;;;;;;;;;;;;;;;;;;;;;;;;;;;;;;;;;;;;;;;;;;;;;;;;;;;;;;;;;;;;;;;;;;;;;;;;;;;;;;;;;;;;;;;;;;;;;;;;;;;;;;;;;;;;;;;;;;;;;;;;;;;;;;;;;;;46.5867365673326;;;9.91133074154743;;;;;;;43.50193269112;;;;;;;;;;;;;
2010;[14544] ROGERS N. W.(2010)  [GeoReM [5149] ];samp. 01.03.24.08;;ETHIOPIAN PLATEAU / NORTHERN ETHIOPIAN PLATEAU / DILB SECTION;;11.945;39.3973;11.945;39.3973;3527;3527;OUTCROP;;;SUBAERIAL;VOLCANIC ROCK;ANKARAMITE;;;30000000;30000000;OLIGOCENE;;;;;MINERAL / COMPONENT (INCL. GROUNDMASS);CLINOPYROXENE;;;;;PRIMARY;;;;;;;;49.727;1.206;2.459;0.647;;;;;6.817;;20.578;16.466;0.166;;;0.039;;;0;EMP (EPMA);;;0.33;EMP (EPMA);;;0.021;;;;;;;;;;;;;;;;;;;;;;;;;;;;;;;;;;;;;;;;;;;;;;;;;;;;;;;;;;;;;;;;;;;;;;;;;;;;;;;;;;;;;;;;;;;;;;;;;;;;;;;;;;;;;;;;;;;;;;;;;;;;;;;;;;;;;;;;;;;;;;;;;;;;;;;;;;;;;;;;;;;;;;;;;;;;;;;;;;;;;;;;;;;;;;;;;;;;;;;;;;;;;;;;;;;;;;;;;;;;;;;;;;;;;;;;;;;;;;;;;;;;;;;;;;;;;;;;;;;;;;;;;;;;;;;46.9380338477419;;;10.90158423518;;;;;;;42.1603819170781;;;;;;;;;;;;;
2010;[14544] ROGERS N. W.(2010)  [GeoReM [5149] ];samp. 01.03.24.08;;ETHIOPIAN PLATEAU / NORTHERN ETHIOPIAN PLATEAU / DILB SECTION;;11.945;39.3973;11.945;39.3973;3527;3527;OUTCROP;;;SUBAERIAL;VOLCANIC ROCK;ANKARAMITE;;;30000000;30000000;OLIGOCENE;;;;;MINERAL / COMPONENT (INCL. GROUNDMASS);CLINOPYROXENE;;;;;PRIMARY;;;;;;;;51.242;1.252;2.359;0.585;;;;;6.741;;21.485;16.09;0.148;;;0.04;;;0.002;EMP (EPMA);;;0.304;EMP (EPMA);;;0.015;;;;;;;;;;;;;;;;;;;;;;;;;;;;;;;;;;;;;;;;;;;;;;;;;;;;;;;;;;;;;;;;;;;;;;;;;;;;;;;;;;;;;;;;;;;;;;;;;;;;;;;;;;;;;;;;;;;;;;;;;;;;;;;;;;;;;;;;;;;;;;;;;;;;;;;;;;;;;;;;;;;;;;;;;;;;;;;;;;;;;;;;;;;;;;;;;;;;;;;;;;;;;;;;;;;;;;;;;;;;;;;;;;;;;;;;;;;;;;;;;;;;;;;;;;;;;;;;;;;;;;;;;;;;;;;45.5632546030056;;;10.7088431979496;;;;;;;43.7279021990448;;;;;;;;;;;;;
2010;[14544] ROGERS N. W.(2010)  [GeoReM [5149] ];samp. 01.03.24.08;;ETHIOPIAN PLATEAU / NORTHERN ETHIOPIAN PLATEAU / DILB SECTION;;11.945;39.3973;11.945;39.3973;3527;3527;OUTCROP;;;SUBAERIAL;VOLCANIC ROCK;ANKARAMITE;;;30000000;30000000;OLIGOCENE;;;;;MINERAL / COMPONENT (INCL. GROUNDMASS);CLINOPYROXENE;;;;;PRIMARY;;;;;;;;48.853;1.711;3.12;0.576;;;;;7.333;;20.702;15.661;0.179;;;0.027;;;0.004;EMP (EPMA);;;0.341;EMP (EPMA);;;0.032;;;;;;;;;;;;;;;;;;;;;;;;;;;;;;;;;;;;;;;;;;;;;;;;;;;;;;;;;;;;;;;;;;;;;;;;;;;;;;;;;;;;;;;;;;;;;;;;;;;;;;;;;;;;;;;;;;;;;;;;;;;;;;;;;;;;;;;;;;;;;;;;;;;;;;;;;;;;;;;;;;;;;;;;;;;;;;;;;;;;;;;;;;;;;;;;;;;;;;;;;;;;;;;;;;;;;;;;;;;;;;;;;;;;;;;;;;;;;;;;;;;;;;;;;;;;;;;;;;;;;;;;;;;;;;;45.1926182985248;;;11.8710528127431;;;;;;;42.9363288887321;;;;;;;;;;;;;
2010;[14544] ROGERS N. W.(2010)  [GeoReM [5149] ];samp. 01.03.24.08;;ETHIOPIAN PLATEAU / NORTHERN ETHIOPIAN PLATEAU / DILB SECTION;;11.945;39.3973;11.945;39.3973;3527;3527;OUTCROP;;;SUBAERIAL;VOLCANIC ROCK;ANKARAMITE;;;30000000;30000000;OLIGOCENE;;;;;MINERAL / COMPONENT (INCL. GROUNDMASS);CLINOPYROXENE;;;;;PRIMARY;;;;;;;;47.69;1.987;3.674;0.365;;;;;7.826;;20.657;15.025;0.162;;;0.045;;;0.01;EMP (EPMA);;;0.357;EMP (EPMA);;;0.037;;;;;;;;;;;;;;;;;;;;;;;;;;;;;;;;;;;;;;;;;;;;;;;;;;;;;;;;;;;;;;;;;;;;;;;;;;;;;;;;;;;;;;;;;;;;;;;;;;;;;;;;;;;;;;;;;;;;;;;;;;;;;;;;;;;;;;;;;;;;;;;;;;;;;;;;;;;;;;;;;;;;;;;;;;;;;;;;;;;;;;;;;;;;;;;;;;;;;;;;;;;;;;;;;;;;;;;;;;;;;;;;;;;;;;;;;;;;;;;;;;;;;;;;;;;;;;;;;;;;;;;;;;;;;;;43.8530979695236;;;12.8140135895175;;;;;;;43.3328884409588;;;;;;;;;;;;;
2010;[14544] ROGERS N. W.(2010)  [GeoReM [5149] ];samp. 01.03.24.08;;ETHIOPIAN PLATEAU / NORTHERN ETHIOPIAN PLATEAU / DILB SECTION;;11.945;39.3973;11.945;39.3973;3527;3527;OUTCROP;;;SUBAERIAL;VOLCANIC ROCK;ANKARAMITE;;;30000000;30000000;OLIGOCENE;;;;;MINERAL / COMPONENT (INCL. GROUNDMASS);CLINOPYROXENE;;;;;PRIMARY;;;;;;;;47.016;2.358;4.458;0.239;;;;;8.652;;20.389;14.709;0.174;;;0.042;;;0;EMP (EPMA);;;0.392;EMP (EPMA);;;0.031;;;;;;;;;;;;;;;;;;;;;;;;;;;;;;;;;;;;;;;;;;;;;;;;;;;;;;;;;;;;;;;;;;;;;;;;;;;;;;;;;;;;;;;;;;;;;;;;;;;;;;;;;;;;;;;;;;;;;;;;;;;;;;;;;;;;;;;;;;;;;;;;;;;;;;;;;;;;;;;;;;;;;;;;;;;;;;;;;;;;;;;;;;;;;;;;;;;;;;;;;;;;;;;;;;;;;;;;;;;;;;;;;;;;;;;;;;;;;;;;;;;;;;;;;;;;;;;;;;;;;;;;;;;;;;;42.9875534944629;;;14.1852054494989;;;;;;;42.8272410560383;;;;;;;;;;;;;
2010;[14544] ROGERS N. W.(2010)  [GeoReM [5149] ];samp. 01.03.24.08;;ETHIOPIAN PLATEAU / NORTHERN ETHIOPIAN PLATEAU / DILB SECTION;;11.945;39.3973;11.945;39.3973;3527;3527;OUTCROP;;;SUBAERIAL;VOLCANIC ROCK;ANKARAMITE;;;30000000;30000000;OLIGOCENE;;;;;MINERAL / COMPONENT (INCL. GROUNDMASS);CLINOPYROXENE;;;;;PRIMARY;;;;;;;;48.518;1.504;2.85;0.255;;;;;7.234;;20.87;15.479;0.143;;;0.032;;;0.001;EMP (EPMA);;;0.328;EMP (EPMA);;;0.013;;;;;;;;;;;;;;;;;;;;;;;;;;;;;;;;;;;;;;;;;;;;;;;;;;;;;;;;;;;;;;;;;;;;;;;;;;;;;;;;;;;;;;;;;;;;;;;;;;;;;;;;;;;;;;;;;;;;;;;;;;;;;;;;;;;;;;;;;;;;;;;;;;;;;;;;;;;;;;;;;;;;;;;;;;;;;;;;;;;;;;;;;;;;;;;;;;;;;;;;;;;;;;;;;;;;;;;;;;;;;;;;;;;;;;;;;;;;;;;;;;;;;;;;;;;;;;;;;;;;;;;;;;;;;;;44.8184741796723;;;11.75038805779;;;;;;;43.4311377625377;;;;;;;;;;;;;
2010;[14544] ROGERS N. W.(2010)  [GeoReM [5149] ];samp. 01.03.24.08;;ETHIOPIAN PLATEAU / NORTHERN ETHIOPIAN PLATEAU / DILB SECTION;;11.945;39.3973;11.945;39.3973;3527;3527;OUTCROP;;;SUBAERIAL;VOLCANIC ROCK;ANKARAMITE;;;30000000;30000000;OLIGOCENE;;;;;MINERAL / COMPONENT (INCL. GROUNDMASS);CLINOPYROXENE;;;;;PRIMARY;;;;;;;;50.985;1.657;2.724;0.39;;;;;7.74;;20.194;16.311;0.164;;;0.044;;;0.011;EMP (EPMA);;;0.322;EMP (EPMA);;;0.027;;;;;;;;;;;;;;;;;;;;;;;;;;;;;;;;;;;;;;;;;;;;;;;;;;;;;;;;;;;;;;;;;;;;;;;;;;;;;;;;;;;;;;;;;;;;;;;;;;;;;;;;;;;;;;;;;;;;;;;;;;;;;;;;;;;;;;;;;;;;;;;;;;;;;;;;;;;;;;;;;;;;;;;;;;;;;;;;;;;;;;;;;;;;;;;;;;;;;;;;;;;;;;;;;;;;;;;;;;;;;;;;;;;;;;;;;;;;;;;;;;;;;;;;;;;;;;;;;;;;;;;;;;;;;;;46.3814178222986;;;12.347070600789;;;;;;;41.2715115769124;;;;;;;;;;;;;
2010;[14544] ROGERS N. W.(2010)  [GeoReM [5149] ];samp. 01.03.24.09;;ETHIOPIAN PLATEAU / NORTHERN ETHIOPIAN PLATEAU / DILB SECTION;;11.92;39.36;11.96;39.42;;;OUTCROP;;;SUBAERIAL;VOLCANIC ROCK;ANKARAMITE;;;30000000;30000000;OLIGOCENE;;;;;MINERAL / COMPONENT (INCL. GROUNDMASS);CLINOPYROXENE;;;;;PRIMARY;;;;;;;;52.052;1.346;2.391;0.546;;;;;6.648;;19.659;16.265;0.151;;;0.043;;;0;EMP (EPMA);;;0.369;EMP (EPMA);;;0;;;;;;;;;;;;;;;;;;;;;;;;;;;;;;;;;;;;;;;;;;;;;;;;;;;;;;;;;;;;;;;;;;;;;;;;;;;;;;;;;;;;;;;;;;;;;;;;;;;;;;;;;;;;;;;;;;;;;;;;;;;;;;;;;;;;;;;;;;;;;;;;;;;;;;;;;;;;;;;;;;;;;;;;;;;;;;;;;;;;;;;;;;;;;;;;;;;;;;;;;;;;;;;;;;;;;;;;;;;;;;;;;;;;;;;;;;;;;;;;;;;;;;;;;;;;;;;;;;;;;;;;;;;;;;;47.6644366346096;;;10.929264729173;;;;;;;41.4062986362174;;;;;;;;;;;;;
2010;[14544] ROGERS N. W.(2010)  [GeoReM [5149] ];samp. 01.03.24.09;;ETHIOPIAN PLATEAU / NORTHERN ETHIOPIAN PLATEAU / DILB SECTION;;11.92;39.36;11.96;39.42;;;OUTCROP;;;SUBAERIAL;VOLCANIC ROCK;ANKARAMITE;;;30000000;30000000;OLIGOCENE;;;;;MINERAL / COMPONENT (INCL. GROUNDMASS);CLINOPYROXENE;;;;;PRIMARY;;;;;;;;51.544;1.763;3.631;0.799;;;;;6.78;;20.271;15.697;0.144;;;0.049;;;0.001;EMP (EPMA);;;0.401;EMP (EPMA);;;0;;;;;;;;;;;;;;;;;;;;;;;;;;;;;;;;;;;;;;;;;;;;;;;;;;;;;;;;;;;;;;;;;;;;;;;;;;;;;;;;;;;;;;;;;;;;;;;;;;;;;;;;;;;;;;;;;;;;;;;;;;;;;;;;;;;;;;;;;;;;;;;;;;;;;;;;;;;;;;;;;;;;;;;;;;;;;;;;;;;;;;;;;;;;;;;;;;;;;;;;;;;;;;;;;;;;;;;;;;;;;;;;;;;;;;;;;;;;;;;;;;;;;;;;;;;;;;;;;;;;;;;;;;;;;;;46.0729440265079;;;11.1639668432273;;;;;;;42.7630891302647;;;;;;;;;;;;;
2010;[14544] ROGERS N. W.(2010)  [GeoReM [5149] ];samp. 01.03.24.09;;ETHIOPIAN PLATEAU / NORTHERN ETHIOPIAN PLATEAU / DILB SECTION;;11.92;39.36;11.96;39.42;;;OUTCROP;;;SUBAERIAL;VOLCANIC ROCK;ANKARAMITE;;;30000000;30000000;OLIGOCENE;;;;;MINERAL / COMPONENT (INCL. GROUNDMASS);CLINOPYROXENE;;;;;PRIMARY;;;;;;;;49.25;1.938;3.826;0.743;;;;;6.987;;20.035;14.68;0.151;;;0.05;;;0.019;EMP (EPMA);;;0.452;EMP (EPMA);;;0;;;;;;;;;;;;;;;;;;;;;;;;;;;;;;;;;;;;;;;;;;;;;;;;;;;;;;;;;;;;;;;;;;;;;;;;;;;;;;;;;;;;;;;;;;;;;;;;;;;;;;;;;;;;;;;;;;;;;;;;;;;;;;;;;;;;;;;;;;;;;;;;;;;;;;;;;;;;;;;;;;;;;;;;;;;;;;;;;;;;;;;;;;;;;;;;;;;;;;;;;;;;;;;;;;;;;;;;;;;;;;;;;;;;;;;;;;;;;;;;;;;;;;;;;;;;;;;;;;;;;;;;;;;;;;;44.485666261003;;;11.8780274664876;;;;;;;43.6363062725094;;;;;;;;;;;;;
2010;[14544] ROGERS N. W.(2010)  [GeoReM [5149] ];samp. 01.03.24.09;;ETHIOPIAN PLATEAU / NORTHERN ETHIOPIAN PLATEAU / DILB SECTION;;11.92;39.36;11.96;39.42;;;OUTCROP;;;SUBAERIAL;VOLCANIC ROCK;ANKARAMITE;;;30000000;30000000;OLIGOCENE;;;;;MINERAL / COMPONENT (INCL. GROUNDMASS);CLINOPYROXENE;;;;;PRIMARY;;;;;;;;48.95;2.26;4.341;0.448;;;;;7.478;;19.889;14.331;0.144;;;0.045;;;0.015;EMP (EPMA);;;0.499;EMP (EPMA);;;0;;;;;;;;;;;;;;;;;;;;;;;;;;;;;;;;;;;;;;;;;;;;;;;;;;;;;;;;;;;;;;;;;;;;;;;;;;;;;;;;;;;;;;;;;;;;;;;;;;;;;;;;;;;;;;;;;;;;;;;;;;;;;;;;;;;;;;;;;;;;;;;;;;;;;;;;;;;;;;;;;;;;;;;;;;;;;;;;;;;;;;;;;;;;;;;;;;;;;;;;;;;;;;;;;;;;;;;;;;;;;;;;;;;;;;;;;;;;;;;;;;;;;;;;;;;;;;;;;;;;;;;;;;;;;;;43.6642399310859;;;12.7818703393105;;;;;;;43.5538897296036;;;;;;;;;;;;;
2010;[14544] ROGERS N. W.(2010)  [GeoReM [5149] ];samp. 01.03.24.09;;ETHIOPIAN PLATEAU / NORTHERN ETHIOPIAN PLATEAU / DILB SECTION;;11.92;39.36;11.96;39.42;;;OUTCROP;;;SUBAERIAL;VOLCANIC ROCK;ANKARAMITE;;;30000000;30000000;OLIGOCENE;;;;;MINERAL / COMPONENT (INCL. GROUNDMASS);CLINOPYROXENE;;;;;PRIMARY;;;;;;;;51.659;2.064;4.412;0.559;;;;;7.173;;19.295;15.081;0.134;;;0.029;;;0.042;EMP (EPMA);;;0.62;EMP (EPMA);;;0;;;;;;;;;;;;;;;;;;;;;;;;;;;;;;;;;;;;;;;;;;;;;;;;;;;;;;;;;;;;;;;;;;;;;;;;;;;;;;;;;;;;;;;;;;;;;;;;;;;;;;;;;;;;;;;;;;;;;;;;;;;;;;;;;;;;;;;;;;;;;;;;;;;;;;;;;;;;;;;;;;;;;;;;;;;;;;;;;;;;;;;;;;;;;;;;;;;;;;;;;;;;;;;;;;;;;;;;;;;;;;;;;;;;;;;;;;;;;;;;;;;;;;;;;;;;;;;;;;;;;;;;;;;;;;;45.7375882407025;;;12.2040362622902;;;;;;;42.0583754970073;;;;;;;;;;;;;