Year;CITATION;SAMPLE NAME;UNIQUE_ID;LOCATION;LOCATION COMMENT;LATITUDE (MIN.);LONGITUDE (MIN.);LATITUDE (MAX.);LONGITUDE (MAX.);ELEVATION (MIN.);ELEVATION (MAX.);SAMPLING TECHNIQUE;DRILLING DEPTH (MIN.);DRILLING DEPTH (MAX.);LAND/SEA (SAMPLING);ROCK TYPE;ROCK NAME;ROCK TEXTURE;SAMPLE COMMENT;AGE (MIN.);AGE (MAX.);GEOLOGICAL AGE;GEOLOGICAL AGE PREFIX;ERUPTION YEAR;ALTERATION;ALTERATION TYPE;TYPE OF MATERIAL;MINERAL / COMPONENT;SPOT (MINERAL);CRYSTAL;RIM / CORE (MINERAL GRAINS);GRAIN SIZE;PRIMARY/SECONDARY;INCLUSION TYPE;SPOT (INCLUSION);MINERAL (INCLUSION);RIM / CORE (INCLUSION);HOSTMINERAL (INCLUSION);HEATING;HEATING TEMPERATURE (?C);SIO2(WT%);TIO2(WT%);AL2O3(WT%);CR2O3(WT%);V2O3(WT%);V2O5(WT%);FE2O3T(WT%);FE2O3(WT%);FEOT(WT%);FEO(WT%);CAO(WT%);MGO(WT%);MNO(WT%);BAO(WT%);SRO(WT%);NIO(WT%);ZNO(WT%);COO(WT%);K2O(WT%);;;;NA2O(WT%);;;;P2O5(WT%);H2O(WT%);H2OP(WT%);H2OM(WT%);CO2(WT%);F(WT%);CL(WT%);CL2(WT%);SO3(WT%);S(WT%);LOI(WT%);O(WT%);SI(WT%);AL(WT%);TI(WT%);FE(WT%);MG(WT%);MN(WT%);CA(WT%);K(WT%): altern. values or methods;;;;NA(WT%);CR(WT%);NI(WT%);HE(CCMSTP/G);HE3(CCMSTP/G);HE4(CCMSTP/G): altern. values or methods;;;;LI(PPM);BE(PPM);B(PPM);F(PPM);NE20(CCMSTP/G);NE22(CCMSTP/G);P(PPM);S(PPM);CL(PPM);AR36(CCMSTP/G);AR40(CCMSTP/G);AR40(MOL/G): altern. values or methods;;;;AR40(PPB);K(PPM);SC(PPM): altern. values or methods;;;;;;TI(PPM);V(PPM): altern. values or methods;;;;CR(PPM): altern. values or methods;;;;MN(PPM);FE(PPM);CO(PPM): altern. values or methods;;;;;;NI(PPM): altern. values or methods;;;;;;CU(PPM): altern. values or methods;;;;ZN(PPM): altern. values or methods;;;;GA(PPM): altern. values or methods;;;;GE(PPM);AS(PPM);KR84(CCMSTP/G);RB(PPM): altern. values or methods;;;;SR(PPM): altern. values or methods;;;;Y(PPM): altern. values or methods;;;;ZR(PPM): altern. values or methods;;;;NB(PPM): altern. values or methods;;;;MO(PPM);RU(PPB);RH(PPB);PD(PPB);IN(PPM);SN(PPM);SB(PPM);XE132(CCMSTP/G);CS(PPM);BA(PPM): altern. values or methods;;;;LA(PPM): altern. values or methods;;;;CE(PPM): altern. values or methods;;;;PR(PPM): altern. values or methods;;;;ND(PPM): altern. values or methods;;;;SM(PPM): altern. values or methods;;;;EU(PPM): altern. values or methods;;;;GD(PPM);TB(PPM): altern. values or methods;;;;DY(PPM);HO(PPM);ER(PPM);TM(PPM);YB(PPM): altern. values or methods;;;;LU(PPM);HF(PPM): altern. values or methods;;;;TA(PPM);W(PPM);RE(PPB): altern. values or methods;;;;RE(PPT);OS(PPB): altern. values or methods;;;;OS(PPT);IR(PPB);PT(PPB);AU(PPB);HG(PPB);TL(PPM);PB(PPM): altern. values or methods;;;;PB210_ACT(DPM/G);TH(PPM): altern. values or methods;;;;TH(PPB);U(PPM): altern. values or methods;;;;U(PPB);CO2(PPM);H2O(PPM);ND143_ND144;ND148_ND144;SM147_ND144;SR87_SR86;RB87_SR86;PB206_PB204: altern. values or methods;;;;PB206_PB207;PB206_PB208;PB207_PB204: altern. values or methods;;;;PB207_PB206;PB208_PB204: altern. values or methods;;;;PB208_PB206;OS187_OS186;OS187_OS188: altern. values or methods;;;;RE187_OS188: altern. values or methods;;;;HF176_HF177;HE3_HE4;HE3_HE4(R/R(A)): altern. values or methods;;;;HE4_HE3: altern. values or methods;;;;;;HE4_HE3(R/R(A)): altern. values or methods;;;;AR38_AR36;AR40_AR36;NE20_NE22;NE21_NE22;XE129_XE132;PB206_U238;PB207_U235;PB210_U238;TH232_U238;U238_PB204;D13C(VS SMOW);D17O(VS VSMOW);D18O(PER MIL);D18O(VS PDB);D18O(VS SMOW);D18O(VS VSMOW);D34S(VS CDT);D44_40CA(VS SRM915A);D56FE(VS IRMM-014);DD(VS SMOW);ALBITE(MOL%);ACMITE(MOL%);ANORTHITE(MOL%);ENSTATITE(MOL%);FAYALITE(MOL%);FORSTERITE(MOL%);FERROSILITE(MOL%);HEMATITE(MOL%);LARNITE(MOL%);ORTHOCLASE(MOL%);PSEUDOBROOKITE(MOL%);TEPHROITE(MOL%);ULVOSPINEL(MOL%);WOLLASTONITE(MOL%);AGE(KA);AGE(MA): altern. values or methods;;;;;;;;AGE_PB207_PB206(MA);AGE_PB207_U235(MA);AGE_PB206_U238(MA);
2010;[14544] ROGERS N. W.(2010)  [GeoReM [5149] ];samp. 01.03.27.14;;ETHIOPIAN PLATEAU / NORTHERN ETHIOPIAN PLATEAU / LALIBELA SECTION;;12.0395;39.0301;12.0395;39.0301;2228;2228;OUTCROP;;;SUBAERIAL;VOLCANIC ROCK;ANKARAMITE;;;30000000;30000000;OLIGOCENE;;;;;MINERAL / COMPONENT (INCL. GROUNDMASS);CLINOPYROXENE;;;;;PRIMARY;;;;;;;;50.689;1.726;2.113;0.123;;;;;6.642;;22.615;15.499;0.123;;;0.03;;;0.001;EMP (EPMA);;;0.373;EMP (EPMA);;;0.007;;;;;;;;;;;;;;;;;;;;;;;;;;;;;;;;;;;;;;;;;;;;;;;;;;;;;;;;;;;;;;;;;;;;;;;;;;;;;;;;;;;;;;;;;;;;;;;;;;;;;;;;;;;;;;;;;;;;;;;;;;;;;;;;;;;;;;;;;;;;;;;;;;;;;;;;;;;;;;;;;;;;;;;;;;;;;;;;;;;;;;;;;;;;;;;;;;;;;;;;;;;;;;;;;;;;;;;;;;;;;;;;;;;;;;;;;;;;;;;;;;;;;;;;;;;;;;;;;;;;;;;;;;;;;;;43.6847896592603;;;10.5023135484047;;;;;;;45.812896792335;;;;;;;;;;;;;
2010;[14544] ROGERS N. W.(2010)  [GeoReM [5149] ];samp. 01.03.27.14;;ETHIOPIAN PLATEAU / NORTHERN ETHIOPIAN PLATEAU / LALIBELA SECTION;;12.0395;39.0301;12.0395;39.0301;2228;2228;OUTCROP;;;SUBAERIAL;VOLCANIC ROCK;ANKARAMITE;;;30000000;30000000;OLIGOCENE;;;;;MINERAL / COMPONENT (INCL. GROUNDMASS);CLINOPYROXENE;;;;;PRIMARY;;;;;;;;50.943;1.261;1.239;0.641;;;;;4.977;;21.986;17.209;0.116;;;0.039;;;0;EMP (EPMA);;;0.278;EMP (EPMA);;;0.027;;;;;;;;;;;;;;;;;;;;;;;;;;;;;;;;;;;;;;;;;;;;;;;;;;;;;;;;;;;;;;;;;;;;;;;;;;;;;;;;;;;;;;;;;;;;;;;;;;;;;;;;;;;;;;;;;;;;;;;;;;;;;;;;;;;;;;;;;;;;;;;;;;;;;;;;;;;;;;;;;;;;;;;;;;;;;;;;;;;;;;;;;;;;;;;;;;;;;;;;;;;;;;;;;;;;;;;;;;;;;;;;;;;;;;;;;;;;;;;;;;;;;;;;;;;;;;;;;;;;;;;;;;;;;;;48.0657637221534;;;7.7984338310735;;;;;;;44.1358024467731;;;;;;;;;;;;;
2010;[14544] ROGERS N. W.(2010)  [GeoReM [5149] ];samp. 01.03.27.14;;ETHIOPIAN PLATEAU / NORTHERN ETHIOPIAN PLATEAU / LALIBELA SECTION;;12.0395;39.0301;12.0395;39.0301;2228;2228;OUTCROP;;;SUBAERIAL;VOLCANIC ROCK;ANKARAMITE;;;30000000;30000000;OLIGOCENE;;;;;MINERAL / COMPONENT (INCL. GROUNDMASS);CLINOPYROXENE;;;;;PRIMARY;;;;;;;;51.392;1.799;1.644;0.452;;;;;5.57;;22.719;16.134;0.115;;;0.041;;;0;EMP (EPMA);;;0.322;EMP (EPMA);;;0.015;;;;;;;;;;;;;;;;;;;;;;;;;;;;;;;;;;;;;;;;;;;;;;;;;;;;;;;;;;;;;;;;;;;;;;;;;;;;;;;;;;;;;;;;;;;;;;;;;;;;;;;;;;;;;;;;;;;;;;;;;;;;;;;;;;;;;;;;;;;;;;;;;;;;;;;;;;;;;;;;;;;;;;;;;;;;;;;;;;;;;;;;;;;;;;;;;;;;;;;;;;;;;;;;;;;;;;;;;;;;;;;;;;;;;;;;;;;;;;;;;;;;;;;;;;;;;;;;;;;;;;;;;;;;;;;45.3361069814121;;;8.78045264864953;;;;;;;45.8834403699384;;;;;;;;;;;;;
2010;[14544] ROGERS N. W.(2010)  [GeoReM [5149] ];samp. 01.03.27.14;;ETHIOPIAN PLATEAU / NORTHERN ETHIOPIAN PLATEAU / LALIBELA SECTION;;12.0395;39.0301;12.0395;39.0301;2228;2228;OUTCROP;;;SUBAERIAL;VOLCANIC ROCK;ANKARAMITE;;;30000000;30000000;OLIGOCENE;;;;;MINERAL / COMPONENT (INCL. GROUNDMASS);CLINOPYROXENE;;;;;PRIMARY;;;;;;;;50.36;1.765;2.533;0.149;;;;;6.83;;22.352;15.401;0.139;;;0.029;;;0;EMP (EPMA);;;0.365;EMP (EPMA);;;0.017;;;;;;;;;;;;;;;;;;;;;;;;;;;;;;;;;;;;;;;;;;;;;;;;;;;;;;;;;;;;;;;;;;;;;;;;;;;;;;;;;;;;;;;;;;;;;;;;;;;;;;;;;;;;;;;;;;;;;;;;;;;;;;;;;;;;;;;;;;;;;;;;;;;;;;;;;;;;;;;;;;;;;;;;;;;;;;;;;;;;;;;;;;;;;;;;;;;;;;;;;;;;;;;;;;;;;;;;;;;;;;;;;;;;;;;;;;;;;;;;;;;;;;;;;;;;;;;;;;;;;;;;;;;;;;;43.6318494000767;;;10.8551278420395;;;;;;;45.5130227578839;;;;;;;;;;;;;
2010;[14544] ROGERS N. W.(2010)  [GeoReM [5149] ];samp. 01.03.27.14;;ETHIOPIAN PLATEAU / NORTHERN ETHIOPIAN PLATEAU / LALIBELA SECTION;;12.0395;39.0301;12.0395;39.0301;2228;2228;OUTCROP;;;SUBAERIAL;VOLCANIC ROCK;ANKARAMITE;;;30000000;30000000;OLIGOCENE;;;;;MINERAL / COMPONENT (INCL. GROUNDMASS);CLINOPYROXENE;;;;;PRIMARY;;;;;;;;51.303;1.809;2.171;0.426;;;;;6.302;;22.742;15.555;0.131;;;0.041;;;0.007;EMP (EPMA);;;0.336;EMP (EPMA);;;0.007;;;;;;;;;;;;;;;;;;;;;;;;;;;;;;;;;;;;;;;;;;;;;;;;;;;;;;;;;;;;;;;;;;;;;;;;;;;;;;;;;;;;;;;;;;;;;;;;;;;;;;;;;;;;;;;;;;;;;;;;;;;;;;;;;;;;;;;;;;;;;;;;;;;;;;;;;;;;;;;;;;;;;;;;;;;;;;;;;;;;;;;;;;;;;;;;;;;;;;;;;;;;;;;;;;;;;;;;;;;;;;;;;;;;;;;;;;;;;;;;;;;;;;;;;;;;;;;;;;;;;;;;;;;;;;;43.896399495946;;;9.97692761247698;;;;;;;46.126672891577;;;;;;;;;;;;;
2010;[14544] ROGERS N. W.(2010)  [GeoReM [5149] ];samp. 01.03.27.14;;ETHIOPIAN PLATEAU / NORTHERN ETHIOPIAN PLATEAU / LALIBELA SECTION;;12.0395;39.0301;12.0395;39.0301;2228;2228;OUTCROP;;;SUBAERIAL;VOLCANIC ROCK;ANKARAMITE;;;30000000;30000000;OLIGOCENE;;;;;MINERAL / COMPONENT (INCL. GROUNDMASS);CLINOPYROXENE;;;;;PRIMARY;;;;;;;;50.944;1.351;1.321;0.4;;;;;6.045;;21.082;17.138;0.146;;;0.028;;;0;EMP (EPMA);;;0.275;EMP (EPMA);;;0.031;;;;;;;;;;;;;;;;;;;;;;;;;;;;;;;;;;;;;;;;;;;;;;;;;;;;;;;;;;;;;;;;;;;;;;;;;;;;;;;;;;;;;;;;;;;;;;;;;;;;;;;;;;;;;;;;;;;;;;;;;;;;;;;;;;;;;;;;;;;;;;;;;;;;;;;;;;;;;;;;;;;;;;;;;;;;;;;;;;;;;;;;;;;;;;;;;;;;;;;;;;;;;;;;;;;;;;;;;;;;;;;;;;;;;;;;;;;;;;;;;;;;;;;;;;;;;;;;;;;;;;;;;;;;;;;48.0305678179461;;;9.50415314638891;;;;;;;42.465279035665;;;;;;;;;;;;;
2010;[14544] ROGERS N. W.(2010)  [GeoReM [5149] ];samp. 01.03.27.14;;ETHIOPIAN PLATEAU / NORTHERN ETHIOPIAN PLATEAU / LALIBELA SECTION;;12.0395;39.0301;12.0395;39.0301;2228;2228;OUTCROP;;;SUBAERIAL;VOLCANIC ROCK;ANKARAMITE;;;30000000;30000000;OLIGOCENE;;;;;MINERAL / COMPONENT (INCL. GROUNDMASS);CLINOPYROXENE;;;;;PRIMARY;;;;;;;;49.73;1.98;2.815;0.264;;;;;7.094;;22.119;15.105;0.131;;;0.034;;;0.004;EMP (EPMA);;;0.391;EMP (EPMA);;;0.015;;;;;;;;;;;;;;;;;;;;;;;;;;;;;;;;;;;;;;;;;;;;;;;;;;;;;;;;;;;;;;;;;;;;;;;;;;;;;;;;;;;;;;;;;;;;;;;;;;;;;;;;;;;;;;;;;;;;;;;;;;;;;;;;;;;;;;;;;;;;;;;;;;;;;;;;;;;;;;;;;;;;;;;;;;;;;;;;;;;;;;;;;;;;;;;;;;;;;;;;;;;;;;;;;;;;;;;;;;;;;;;;;;;;;;;;;;;;;;;;;;;;;;;;;;;;;;;;;;;;;;;;;;;;;;;43.179041851269;;;11.3763512786755;;;;;;;45.4446068700555;;;;;;;;;;;;;
2010;[14544] ROGERS N. W.(2010)  [GeoReM [5149] ];samp. 01.03.27.14;;ETHIOPIAN PLATEAU / NORTHERN ETHIOPIAN PLATEAU / LALIBELA SECTION;;12.0395;39.0301;12.0395;39.0301;2228;2228;OUTCROP;;;SUBAERIAL;VOLCANIC ROCK;ANKARAMITE;;;30000000;30000000;OLIGOCENE;;;;;MINERAL / COMPONENT (INCL. GROUNDMASS);CLINOPYROXENE;;;;;PRIMARY;;;;;;;;51.902;1.33;1.175;0.493;;;;;5.856;;20.916;17.621;0.143;;;0.037;;;0.001;EMP (EPMA);;;0.228;EMP (EPMA);;;0.027;;;;;;;;;;;;;;;;;;;;;;;;;;;;;;;;;;;;;;;;;;;;;;;;;;;;;;;;;;;;;;;;;;;;;;;;;;;;;;;;;;;;;;;;;;;;;;;;;;;;;;;;;;;;;;;;;;;;;;;;;;;;;;;;;;;;;;;;;;;;;;;;;;;;;;;;;;;;;;;;;;;;;;;;;;;;;;;;;;;;;;;;;;;;;;;;;;;;;;;;;;;;;;;;;;;;;;;;;;;;;;;;;;;;;;;;;;;;;;;;;;;;;;;;;;;;;;;;;;;;;;;;;;;;;;;49.0301558792227;;;9.14099200273242;;;;;;;41.8288521180449;;;;;;;;;;;;;
2010;[14544] ROGERS N. W.(2010)  [GeoReM [5149] ];samp. 01.03.27.14;;ETHIOPIAN PLATEAU / NORTHERN ETHIOPIAN PLATEAU / LALIBELA SECTION;;12.0395;39.0301;12.0395;39.0301;2228;2228;OUTCROP;;;SUBAERIAL;VOLCANIC ROCK;ANKARAMITE;;;30000000;30000000;OLIGOCENE;;;;;MINERAL / COMPONENT (INCL. GROUNDMASS);CLINOPYROXENE;;;;;PRIMARY;;;;;;;;51.836;1.529;1.62;0.432;;;;;5.684;;22.184;16.661;0.129;;;0.029;;;0.011;EMP (EPMA);;;0.31;EMP (EPMA);;;0.027;;;;;;;;;;;;;;;;;;;;;;;;;;;;;;;;;;;;;;;;;;;;;;;;;;;;;;;;;;;;;;;;;;;;;;;;;;;;;;;;;;;;;;;;;;;;;;;;;;;;;;;;;;;;;;;;;;;;;;;;;;;;;;;;;;;;;;;;;;;;;;;;;;;;;;;;;;;;;;;;;;;;;;;;;;;;;;;;;;;;;;;;;;;;;;;;;;;;;;;;;;;;;;;;;;;;;;;;;;;;;;;;;;;;;;;;;;;;;;;;;;;;;;;;;;;;;;;;;;;;;;;;;;;;;;;46.5469560382911;;;8.90848449300391;;;;;;;44.544559468705;;;;;;;;;;;;;
2010;[14544] ROGERS N. W.(2010)  [GeoReM [5149] ];samp. 01.03.27.14;;ETHIOPIAN PLATEAU / NORTHERN ETHIOPIAN PLATEAU / LALIBELA SECTION;;12.0395;39.0301;12.0395;39.0301;2228;2228;OUTCROP;;;SUBAERIAL;VOLCANIC ROCK;ANKARAMITE;;;30000000;30000000;OLIGOCENE;;;;;MINERAL / COMPONENT (INCL. GROUNDMASS);CLINOPYROXENE;;;;;PRIMARY;;;;;;;;51.485;1.444;1.568;0.34;;;;;6.232;;21.607;16.761;0.155;;;0.031;;;0;EMP (EPMA);;;0.293;EMP (EPMA);;;0.024;;;;;;;;;;;;;;;;;;;;;;;;;;;;;;;;;;;;;;;;;;;;;;;;;;;;;;;;;;;;;;;;;;;;;;;;;;;;;;;;;;;;;;;;;;;;;;;;;;;;;;;;;;;;;;;;;;;;;;;;;;;;;;;;;;;;;;;;;;;;;;;;;;;;;;;;;;;;;;;;;;;;;;;;;;;;;;;;;;;;;;;;;;;;;;;;;;;;;;;;;;;;;;;;;;;;;;;;;;;;;;;;;;;;;;;;;;;;;;;;;;;;;;;;;;;;;;;;;;;;;;;;;;;;;;;46.8358590999467;;;9.76934726641246;;;;;;;43.3947936336408;;;;;;;;;;;;;