Year;CITATION;SAMPLE NAME;UNIQUE_ID;LOCATION;LOCATION COMMENT;LATITUDE (MIN.);LONGITUDE (MIN.);LATITUDE (MAX.);LONGITUDE (MAX.);ELEVATION (MIN.);ELEVATION (MAX.);SAMPLING TECHNIQUE;DRILLING DEPTH (MIN.);DRILLING DEPTH (MAX.);LAND/SEA (SAMPLING);ROCK TYPE;ROCK NAME;ROCK TEXTURE;SAMPLE COMMENT;AGE (MIN.);AGE (MAX.);GEOLOGICAL AGE;GEOLOGICAL AGE PREFIX;ERUPTION YEAR;ALTERATION;ALTERATION TYPE;TYPE OF MATERIAL;MINERAL / COMPONENT;SPOT (MINERAL);CRYSTAL;RIM / CORE (MINERAL GRAINS);GRAIN SIZE;PRIMARY/SECONDARY;INCLUSION TYPE;SPOT (INCLUSION);MINERAL (INCLUSION);RIM / CORE (INCLUSION);HOSTMINERAL (INCLUSION);HEATING;HEATING TEMPERATURE (?C);SIO2(WT%);TIO2(WT%);AL2O3(WT%);CR2O3(WT%);V2O3(WT%);V2O5(WT%);FE2O3T(WT%);FE2O3(WT%);FEOT(WT%);FEO(WT%);CAO(WT%);MGO(WT%);MNO(WT%);BAO(WT%);SRO(WT%);NIO(WT%);ZNO(WT%);COO(WT%);K2O(WT%);;;;NA2O(WT%);;;;P2O5(WT%);H2O(WT%);H2OP(WT%);H2OM(WT%);CO2(WT%);F(WT%);CL(WT%);CL2(WT%);SO3(WT%);S(WT%);LOI(WT%);O(WT%);SI(WT%);AL(WT%);TI(WT%);FE(WT%);MG(WT%);MN(WT%);CA(WT%);K(WT%): altern. values or methods;;;;NA(WT%);CR(WT%);NI(WT%);HE(CCMSTP/G);HE3(CCMSTP/G);HE4(CCMSTP/G): altern. values or methods;;;;LI(PPM);BE(PPM);B(PPM);F(PPM);NE20(CCMSTP/G);NE22(CCMSTP/G);P(PPM);S(PPM);CL(PPM);AR36(CCMSTP/G);AR40(CCMSTP/G);AR40(MOL/G): altern. values or methods;;;;AR40(PPB);K(PPM);SC(PPM): altern. values or methods;;;;;;TI(PPM);V(PPM): altern. values or methods;;;;CR(PPM): altern. values or methods;;;;MN(PPM);FE(PPM);CO(PPM): altern. values or methods;;;;;;NI(PPM): altern. values or methods;;;;;;CU(PPM): altern. values or methods;;;;ZN(PPM): altern. values or methods;;;;GA(PPM): altern. values or methods;;;;GE(PPM);AS(PPM);KR84(CCMSTP/G);RB(PPM): altern. values or methods;;;;SR(PPM): altern. values or methods;;;;Y(PPM): altern. values or methods;;;;ZR(PPM): altern. values or methods;;;;NB(PPM): altern. values or methods;;;;MO(PPM);RU(PPB);RH(PPB);PD(PPB);IN(PPM);SN(PPM);SB(PPM);XE132(CCMSTP/G);CS(PPM);BA(PPM): altern. values or methods;;;;LA(PPM): altern. values or methods;;;;CE(PPM): altern. values or methods;;;;PR(PPM): altern. values or methods;;;;ND(PPM): altern. values or methods;;;;SM(PPM): altern. values or methods;;;;EU(PPM): altern. values or methods;;;;GD(PPM);TB(PPM): altern. values or methods;;;;DY(PPM);HO(PPM);ER(PPM);TM(PPM);YB(PPM): altern. values or methods;;;;LU(PPM);HF(PPM): altern. values or methods;;;;TA(PPM);W(PPM);RE(PPB): altern. values or methods;;;;RE(PPT);OS(PPB): altern. values or methods;;;;OS(PPT);IR(PPB);PT(PPB);AU(PPB);HG(PPB);TL(PPM);PB(PPM): altern. values or methods;;;;PB210_ACT(DPM/G);TH(PPM): altern. values or methods;;;;TH(PPB);U(PPM): altern. values or methods;;;;U(PPB);CO2(PPM);H2O(PPM);ND143_ND144;ND148_ND144;SM147_ND144;SR87_SR86;RB87_SR86;PB206_PB204: altern. values or methods;;;;PB206_PB207;PB206_PB208;PB207_PB204: altern. values or methods;;;;PB207_PB206;PB208_PB204: altern. values or methods;;;;PB208_PB206;OS187_OS186;OS187_OS188: altern. values or methods;;;;RE187_OS188: altern. values or methods;;;;HF176_HF177;HE3_HE4;HE3_HE4(R/R(A)): altern. values or methods;;;;HE4_HE3: altern. values or methods;;;;;;HE4_HE3(R/R(A)): altern. values or methods;;;;AR38_AR36;AR40_AR36;NE20_NE22;NE21_NE22;XE129_XE132;PB206_U238;PB207_U235;PB210_U238;TH232_U238;U238_PB204;D13C(VS SMOW);D17O(VS VSMOW);D18O(PER MIL);D18O(VS PDB);D18O(VS SMOW);D18O(VS VSMOW);D34S(VS CDT);D44_40CA(VS SRM915A);D56FE(VS IRMM-014);DD(VS SMOW);ALBITE(MOL%);ACMITE(MOL%);ANORTHITE(MOL%);ENSTATITE(MOL%);FAYALITE(MOL%);FORSTERITE(MOL%);FERROSILITE(MOL%);HEMATITE(MOL%);LARNITE(MOL%);ORTHOCLASE(MOL%);PSEUDOBROOKITE(MOL%);TEPHROITE(MOL%);ULVOSPINEL(MOL%);WOLLASTONITE(MOL%);AGE(KA);AGE(MA): altern. values or methods;;;;;;;;AGE_PB207_PB206(MA);AGE_PB207_U235(MA);AGE_PB206_U238(MA);
1991;[1888] ZOLOTUKHIN V. V. (1991);samp. IB-14;;DECCAN;;15;68;25;80;;;OUTCROP;;;SUBAERIAL;VOLCANIC ROCK;ANKARAMITE;;;;;;;;;;MINERAL / COMPONENT (INCL. GROUNDMASS);PYROXENE;;;;;PRIMARY;;;;;;;;53.04;0.41;0.58;0;;;;;;20.65;3.87;22.57;;;;;;;;;;;;;;;;;;;;;;;;;;;;;;;;;;;;;;;;;;;;;;;;;;;;;;;;;;;;;;;;;;;;;;;;;;;;;;;;;;;;;;;;;;;;;;;;;;;;;;;;;;;;;;;;;;;;;;;;;;;;;;;;;;;;;;;;;;;;;;;;;;;;;;;;;;;;;;;;;;;;;;;;;;;;;;;;;;;;;;;;;;;;;;;;;;;;;;;;;;;;;;;;;;;;;;;;;;;;;;;;;;;;;;;;;;;;;;;;;;;;;;;;;;;;;;;;;;;;;;;;;;;;;;;;;;;;;;;;;;;;;;61.1;;;31.4;;;;;;;7.5;;;;;;;;;;;;;
1991;[1888] ZOLOTUKHIN V. V. (1991);samp. IPH-1;;DECCAN;;15;68;25;80;;;OUTCROP;;;SUBAERIAL;VOLCANIC ROCK;ANKARAMITE;;;;;;;;;;MINERAL / COMPONENT (INCL. GROUNDMASS);SPINEL;;;;;PRIMARY;;;;;;;;;3.34;0.82;40.33;;;;;;34.37;;7.95;0.47;;;;;;;;;;;;;;;;;;;;;;;;;;;;;;;;;;;;;;;;;;;;;;;;;;;;;;;;;;;;;;;;;;;;;;;;;;;;;;;;;;;;;;;;;;;;;;;;;;;;;;;;;;;;;;;;;;;;;;;;;;;;;;;;;;;;;;;;;;;;;;;;;;;;;;;;;;;;;;;;;;;;;;;;;;;;;;;;;;;;;;;;;;;;;;;;;;;;;;;;;;;;;;;;;;;;;;;;;;;;;;;;;;;;;;;;;;;;;;;;;;;;;;;;;;;;;;;;;;;;;;;;;;;;;;;;;;;;;;;;;;;;;;;;;;;;;;;;;;;;;;;;;;;;
1991;[1888] ZOLOTUKHIN V. V. (1991);samp. IPH-1;;DECCAN;;15;68;25;80;;;OUTCROP;;;SUBAERIAL;VOLCANIC ROCK;ANKARAMITE;;;;;;;;;;MINERAL / COMPONENT (INCL. GROUNDMASS);ILMENITE;;;;;PRIMARY;;;;;;;;;50.4;1.56;0.1;;;;;;43.73;;4.41;0.56;;;;;;;;;;;;;;;;;;;;;;;;;;;;;;;;;;;;;;;;;;;;;;;;;;;;;;;;;;;;;;;;;;;;;;;;;;;;;;;;;;;;;;;;;;;;;;;;;;;;;;;;;;;;;;;;;;;;;;;;;;;;;;;;;;;;;;;;;;;;;;;;;;;;;;;;;;;;;;;;;;;;;;;;;;;;;;;;;;;;;;;;;;;;;;;;;;;;;;;;;;;;;;;;;;;;;;;;;;;;;;;;;;;;;;;;;;;;;;;;;;;;;;;;;;;;;;;;;;;;;;;;;;;;;;;;;;;;;;;;;;;;;;;;;;;;;;;;;;;;;;;;;;;;
1991;[1888] ZOLOTUKHIN V. V. (1991);samp. IPH-1;;DECCAN;;15;68;25;80;;;OUTCROP;;;SUBAERIAL;VOLCANIC ROCK;ANKARAMITE;;;;;;;;;;MINERAL / COMPONENT (INCL. GROUNDMASS);SPINEL;;;;;PRIMARY;;;;;;;;;20.95;0.14;0.61;;;;;;69.42;;1.86;0.83;;;;;;;;;;;;;;;;;;;;;;;;;;;;;;;;;;;;;;;;;;;;;;;;;;;;;;;;;;;;;;;;;;;;;;;;;;;;;;;;;;;;;;;;;;;;;;;;;;;;;;;;;;;;;;;;;;;;;;;;;;;;;;;;;;;;;;;;;;;;;;;;;;;;;;;;;;;;;;;;;;;;;;;;;;;;;;;;;;;;;;;;;;;;;;;;;;;;;;;;;;;;;;;;;;;;;;;;;;;;;;;;;;;;;;;;;;;;;;;;;;;;;;;;;;;;;;;;;;;;;;;;;;;;;;;;;;;;;;;;;;;;;;;;;;;;;;;;;;;;;;;;;;;;
1991;[1894] ZOLOTUKHIN V. V. (1991);samp. 3;;SIBERIAN TRAPS / NORILSK REGION / MORONGO (MORONGOVSKY) FORMATION;AYAN, LAKE BOKOV AREA;69;91;69;91;;;OUTCROP;;;SUBAERIAL;VOLCANIC ROCK;ANKARAMITE;;;;;;;;;;WHOLE ROCK;;;;;;;;;;;;;;46.35;2.16;10.61;;;;;7.66;;6.5;10.09;10.18;0.19;;;;;;0.55;NOT;;;1.79;NOT;;;0.26;;;;;;;;;;3.64;;;;;;;;;;;;;;;;;;;;;;;;;;;;;;;;;;;;;;;;;;;;;;;;;;;;;;;;;;;;;;;;;;;;;;;;;;;;;;;;;;;;;;;;;;;;;;;;;;;;;;;;;;;;;;;;;;;;;;;;;;;;;;;;;;;;;;;;;;;;;;;;;;;;;;;;;;;;;;;;;;;;;;;;;;;;;;;;;;;;;;;;;;;;;;;;;;;;;;;;;;;;;;;;;;;;;;;;;;;;;;;;;;;;;;;;;;;;;;;;;;;;;;;;;;;;;;;;;;;;;;;;;;;;;;;;;;;;;;;;;;;;
1983;[2024] CHEVALLIER L. (1983);samp. 3;;CROZET ISLANDS / ILE DE LA POSSESSION;PETRELS PLATEAU;-46.4;51.7;-46.4;51.7;;;OUTCROP;;;SUBAERIAL;VOLCANIC ROCK;ANKARAMITE;;;;;;;;;;WHOLE ROCK;;;;;;;;;;;;;;45.9;2.5;13;;;;;4.41;;6.66;12.2;11.5;0.18;;;;;;1.2;NOT;;;2;NOT;;;;;0.37;0.1;;;;;;;;;;;;;;;;0.753;NOT;;;;;;;;;;;;;;;;;;;;;;;;;;;;;;;;;;;;;;;;;;;;;;;;;;;;;;;;;;;;;;;;;;;;;;;;;;;;;;;;;;;;;;;;;;;;;;;;;;;;;;;;;;;;;;;;;;;;;;;;;;;;;;;;;;;;;;;;;;;;;;;;;;;;;;;;;;;;;;;;;;;;;;;;;;;;;;;;;;;;;;;;;;;;;;;;;;;;;;;;;;;;;;;;;;;;;;;;;;;;;;;;;;;;;;;;;;;;;;;;;;;;;;;;;;;;;;;;;;;;;;700;;;;;;;;;;;;
1983;[2024] CHEVALLIER L. (1983);samp. 1;;CROZET ISLANDS / ILE DE LA POSSESSION;PETRELS PLATEAU;-46.4;51.7;-46.4;51.7;;;OUTCROP;;;SUBAERIAL;VOLCANIC ROCK;ANKARAMITE;;;;;;;;;;WHOLE ROCK;;;;;;;;;;;;;;;;;;;;;;;;;;;;;;;;;;;;;;;;;;;;;;;;;;;;;;;;;;;1.3;NOT;;;;;;;;;;;;;;;;;;;;;;;;;;;;;;;;;;;;;;;;;;;;;;;;;;;;;;;;;;;;;;;;;;;;;;;;;;;;;;;;;;;;;;;;;;;;;;;;;;;;;;;;;;;;;;;;;;;;;;;;;;;;;;;;;;;;;;;;;;;;;;;;;;;;;;;;;;;;;;;;;;;;;;;;;;;;;;;;;;;;;;;;;;;;;;;;;;;;;;;;;;;;;;;;;;;;;;;;;;;;;;;;;;;;;;;;;;;;;;;;;;;;;;;;;;;;;;;;;;;;;;530;;;;;;;;;;;;
1983;[2024] CHEVALLIER L. (1983);samp. 2;;CROZET ISLANDS / ILE DE LA POSSESSION;PETRELS PLATEAU;-46.4;51.7;-46.4;51.7;;;OUTCROP;;;SUBAERIAL;VOLCANIC ROCK;ANKARAMITE;;;;;;;;;;WHOLE ROCK;;;;;;;;;;;;;;;;;;;;;;;;;;;;;;;;;;;;;;;;;;;;;;;;;;;;;;;;;;;0.769;NOT;;;;;;;;;;;;;;;;;;;;;;;;;;;;;;;;;;;;;;;;;;;;;;;;;;;;;;;;;;;;;;;;;;;;;;;;;;;;;;;;;;;;;;;;;;;;;;;;;;;;;;;;;;;;;;;;;;;;;;;;;;;;;;;;;;;;;;;;;;;;;;;;;;;;;;;;;;;;;;;;;;;;;;;;;;;;;;;;;;;;;;;;;;;;;;;;;;;;;;;;;;;;;;;;;;;;;;;;;;;;;;;;;;;;;;;;;;;;;;;;;;;;;;;;;;;;;;;;;;;;;;650;;;;;;;;;;;;
1980;[2046] CAMBON P. (1980);samp. 432A-10-1(#1A),7-9;;HAWAIIAN-EMPEROR CHAIN / NINTOKU / SITE 431 / POST-SHIELD STAGE;HOLE 432A;41.3338;170.379;41.3338;170.379;-1320;-1320;DRILL HOLE ;;;SUBAQUATIC;VOLCANIC ROCK;ANKARAMITE;;;;;;;;;;WHOLE ROCK;;;;;;;;;;;;;;46.86;1.7;12.74;;;;14.15;;;;7.71;14.05;0.16;;;;;;0.4;XRF;;;1.9;XRF;;;0.25;;4.17;;0.2;;;;;;6.49;;;;;;;;;;;;;;;;;;;;;;;;;;;;;;;;;;;;;;;25.7;INAA;;;;;11100;261;XRF;;;752;XRF;;;1160;99120;69;XRF;72.1;INAA;;;516;XRF;517;INAA;;;;;;;;;;;;;;;;;;6.2;XRF;6.6;INAA;162;XRF;;;23.6;XRF;;;114;XRF;;;10.9;XRF;;;;;;;;;0.02;;0.04;177;INAA;;;;;;;;;;;;;;;;;;;;;;;1.35;INAA;;;;0.59;INAA;;;;;;;;;;;;2.73;INAA;;;0.75;;;;;;;;;;;;;;;;;;;;;;0.8;INAA;;;;0.25;INAA;;;;;;;;;;;;;;;;;;;;;;;;;;;;;;;;;;;;;;;;;;;;;;;;;;;;;;;;;;;;;;;;;;;;;;;;;;;;;;;;;;;;;;;;;;;;;;;;;;
1980;[2046] CAMBON P. (1980);samp. 432A-10-2(#7),58-60;;HAWAIIAN-EMPEROR CHAIN / NINTOKU / SITE 431 / POST-SHIELD STAGE;HOLE 432A;41.3338;170.379;41.3338;170.379;-1320;-1320;DRILL HOLE ;;;SUBAQUATIC;VOLCANIC ROCK;ANKARAMITE;;;;;;;;;;WHOLE ROCK;;;;;;;;;;;;;;46.16;1.91;14.1;;;;14.63;;;;7.84;11.34;0.13;;;;;;0.44;XRF;;;2.3;XRF;;;0.24;;3.56;;0.17;;;;;;6.59;;;;;;;;;;;;;;;;;;;;;;;;;;;;;;;;;;;;;;;29;INAA;;;;;11820;277;XRF;;;575;XRF;;;1160;104650;58;XRF;57.6;INAA;;;329;XRF;304;INAA;;;;;;;;;;;;;;;;;;6;XRF;6.4;INAA;235;XRF;;;26.5;XRF;;;120;XRF;;;12.1;XRF;;;;;;;;;0.13;;0.04;171;INAA;;;9.1;INAA;;;;;;;;;;;;;;;;;;;1.46;INAA;;;;0.63;INAA;;;;;;;;;;;;2.95;INAA;;;0.84;;;;;;;;;;;;;;;;;;;;;;0.85;INAA;;;;0.24;INAA;;;;;;;;;;;;;;;;;;;;;;;;;;;;;;;;;;;;;;;;;;;;;;;;;;;;;;;;;;;;;;;;;;;;;;;;;;;;;;;;;;;;;;;;;;;;;;;;;;
1980;[2046] CAMBON P. (1980);samp. 432A-10-3(#10A),105-107;;HAWAIIAN-EMPEROR CHAIN / NINTOKU / SITE 431 / POST-SHIELD STAGE;HOLE 432A;41.3338;170.379;41.3338;170.379;-1320;-1320;DRILL HOLE ;;;SUBAQUATIC;VOLCANIC ROCK;ANKARAMITE;;;;;;;;;;WHOLE ROCK;;;;;;;;;;;;;;45.96;1.97;14.76;;;;14.95;;;;8.95;9.23;0.15;;;;;;0.71;XRF;;;2.2;XRF;;;0.25;;2.98;;0.37;;;;;;7.83;;;;;;;;;;;;;;;;;;;;;;;;;;;;;;;;;;;;;;;18;INAA;;;;;6900;169;XRF;;;1328;XRF;;;1470;98700;100;XRF;104;INAA;;;1391;XRF;1208;INAA;;;;;;;;;;;;;;;;;;5.1;XRF;4.3;INAA;102;XRF;;;14;XRF;;;70;XRF;;;6.6;XRF;;;;;;;;;0.02;;0.07;34;INAA;;;4.8;INAA;;;;;;;;;;;;;;;;;;;0.8;INAA;;;;0.34;INAA;;;;;;;;;;;;1.6;INAA;;;0.43;;;;;;;;;;;;;;;;;;;;;;0.48;INAA;;;;0.19;INAA;;;;;;;;;;;;;;;;;;;;;;;;;;;;;;;;;;;;;;;;;;;;;;;;;;;;;;;;;;;;;;;;;;;;;;;;;;;;;;;;;;;;;;;;;;;;;;;;;;
1980;[2046] CAMBON P. (1980);samp. 432A-10-4(#8B),118-121;;HAWAIIAN-EMPEROR CHAIN / NINTOKU / SITE 431 / POST-SHIELD STAGE;HOLE 432A;41.3338;170.379;41.3338;170.379;-1320;-1320;DRILL HOLE ;;;SUBAQUATIC;VOLCANIC ROCK;ANKARAMITE;;;;;;;;;;WHOLE ROCK;;;;;;;;;;;;;;45.94;1.15;8.81;;;;14.1;;;;6.7;20.39;0.19;;;;;;0.28;XRF;;;1.4;XRF;;;0.15;;5.52;;1.76;;;;;;14;;;;;;;;;;;;;;;;;;;;;;;;;;;;;;;;;;;;;;;27.7;INAA;;;;;11340;242;XRF;;;427;XRF;;;540;109900;64;XRF;61.2;INAA;;;270;XRF;287;INAA;;;;;;;;;;;;;;;;;;9.8;XRF;11.4;INAA;165;XRF;;;21.5;XRF;;;117;XRF;;;10.3;XRF;;;;;;;;;0.02;;0.09;59;INAA;;;7.8;INAA;;;;;;;;;;;;;;;;;;;1.47;INAA;;;;0.6;INAA;;;;;;;;;;;;2.8;INAA;;;0.7;;;;;;;;;;;;;;;;;;;;;;0.68;INAA;;;;0.42;INAA;;;;;;;;;;;;;;;;;;;;;;;;;;;;;;;;;;;;;;;;;;;;;;;;;;;;;;;;;;;;;;;;;;;;;;;;;;;;;;;;;;;;;;;;;;;;;;;;;;
1978;[2048] HEDGE C. E. (1978);samp. 1;;MARQUESAS / MARQUESAS;;-10;-139;-10;-139;;;OUTCROP;;;SUBAERIAL;VOLCANIC ROCK;ANKARAMITE;;;;;;;;;;WHOLE ROCK;;;;;;;;;;;;;;;;;;;;;;;;;;;;;;;;;;;;;;;;;;;;;;;;;;;;;;;;;;;;;;;;;;;;;;;;;;;;;;;;;;;;;;;;;;;;;;;;;;;;;;;;;;;;;;;;;;;;;;;;;;;;;;;;;;;;;38;NOT;;;496;NOT;;;;;;;;;;;;;;;;;;;;;;;;;;;;;;;;;;;;;;;;;;;;;;;;;;;;;;;;;;;;;;;;;;;;;;;;;;;;;;;;;;;;;;;;;;;;;;;;;;;;;;;;;;;0.7041;;;;;;;;;;;;;;;;;;;;;;;;;;;;;;;;;;;;;;;;;;;;;;;;;;;;;;;;;;;;;;;;;;;;;;;;;;;;;;;;;;;;;;;;;
1978;[2048] HEDGE C. E. (1978);samp. 1;;SOCIETY ISLANDS / TAHITI;;-17.58;-149.43;-17.58;-149.43;;;OUTCROP;;;SUBAERIAL;VOLCANIC ROCK;ANKARAMITE;;;;;;;;;;WHOLE ROCK;;;;;;;;;;;;;;;;;;;;;;;;;;;;;;;;;;;;;;;;;;;;;;;;;;;;;;;;;;;;;;;;;;;;;;;;;;;;;;;;;;;;;;;;;;;;;;;;;;;;;;;;;;;;;;;;;;;;;;;;;;;;;;;;;;;;;11;NOT;;;350;NOT;;;;;;;;;;;;;;;;;;;;;;;;;;;;;;;;;;;;;;;;;;;;;;;;;;;;;;;;;;;;;;;;;;;;;;;;;;;;;;;;;;;;;;;;;;;;;;;;;;;;;;;;;;;0.7042;;;;;;;;;;;;;;;;;;;;;;;;;;;;;;;;;;;;;;;;;;;;;;;;;;;;;;;;;;;;;;;;;;;;;;;;;;;;;;;;;;;;;;;;;
1978;[2048] HEDGE C. E. (1978);samp. 2;;SOCIETY ISLANDS / TAHITI;;-17.58;-149.43;-17.58;-149.43;;;OUTCROP;;;SUBAERIAL;VOLCANIC ROCK;ANKARAMITE;;;;;;;;;;WHOLE ROCK;;;;;;;;;;;;;;;;;;;;;;;;;;;;;;;;;;;;;;;;;;;;;;;;;;;;;;;;;;;;;;;;;;;;;;;;;;;;;;;;;;;;;;;;;;;;;;;;;;;;;;;;;;;;;;;;;;;;;;;;;;;;;;;;;;;;;29;NOT;;;500;NOT;;;;;;;;;;;;;;;;;;;;;;;;;;;;;;;;;;;;;;;;;;;;;;;;;;;;;;;;;;;;;;;;;;;;;;;;;;;;;;;;;;;;;;;;;;;;;;;;;;;;;;;;;;;0.7047;;;;;;;;;;;;;;;;;;;;;;;;;;;;;;;;;;;;;;;;;;;;;;;;;;;;;;;;;;;;;;;;;;;;;;;;;;;;;;;;;;;;;;;;;
1995;[2280] KOPPERS A. A. P. (1995);samp. 144-874B-24R-4,23-25;96464;RALIK SEAMOUNT GROUP / WODEJEBATO GUYOT / SITE 874;HOLE 874B;12.0038;164.9398;12.0038;164.9398;-1386;-1386;DRILL HOLE ;;;SUBAQUATIC;VOLCANIC ROCK;ANKARAMITE;INTERGRANULAR, MICROCRYSTALLINE GROUNDMASS;;;;;;;MODERATELY ALTERED;;WHOLE ROCK;;;;;;;;;;;;;;;;;;;;;;;;;;;;;;;;;;;;;;;;;;;;;;;;;;;;;;;;;;;;;;;;;;;;;;;;;;;;;;;;;;;;;;;;;;;;;;;;;;;;;;;;;;;;;;;;;;;;;;;;;;;;;;;;;;;;;;;;;;;;;;;;;;;;;;;;;;;;;;;;;;;;;;;;;;;;;;;;;;;;;;;;;;;;;;;;;;;;;;;;;;;;;;;;;;;;;;;;;;;;;;;;;;;;;;;;;;;;;;;;;;0.512766;;;0.704851;;19.516;TIMS;;;;;15.66;TIMS;;;;39.417;TIMS;;;;;;;;;;;;;;;;;;;;;;;;;;;;;;;;;;;;;;;;;;;;;;;;;;;;;;;;;;;;;;;;;;;;;;;;;;;
1995;[2280] KOPPERS A. A. P. (1995);samp. 144-874B-24R-4,23-25;96464;RALIK SEAMOUNT GROUP / WODEJEBATO GUYOT / SITE 874;HOLE 874B;12.0038;164.9398;12.0038;164.9398;-1386;-1386;DRILL HOLE ;;;SUBAQUATIC;VOLCANIC ROCK;ANKARAMITE;INTERGRANULAR, MICROCRYSTALLINE GROUNDMASS;;;;;;;MODERATELY ALTERED;;WHOLE ROCK;;;;;;;;;;;;;;;;;;;;;;;;;;;;;;;;;;;;;;;;;;;;;;;;;;;;;;;;;;;;;;;;;;;;;;;;;;;;;;;;;;;;;;;;;;;;;;;;;;;;;;;;;;;;;;;;;;;;;;;;;;;;;;;;;;;;;;;;;;;;;;;;;;;;;;;;;;;;;;;;;;;;;;;;;;;;;;;;;;;;;;;;;;;;;;;;;;;;;;;;;;;;;;;;;;;;;;;;;;;;;;;;;;;;;;;;;;;;;;;;;;;;;0.704861;;19.484;TIMS;;;;;15.637;TIMS;;;;39.369;TIMS;;;;;;;;;;;;;;;;;;;;;;;;;;;;;;;;;;;;;;;;;;;;;;;;;;;;;;;;;;;;;;;;;;;;;;;;;;;
1995;[2280] KOPPERS A. A. P. (1995);samp. 144-874B-24R-4,23-25;96464;RALIK SEAMOUNT GROUP / WODEJEBATO GUYOT / SITE 874;HOLE 874B;12.0038;164.9398;12.0038;164.9398;-1386;-1386;DRILL HOLE ;;;SUBAQUATIC;VOLCANIC ROCK;ANKARAMITE;INTERGRANULAR, MICROCRYSTALLINE GROUNDMASS;;;;;;;MODERATELY ALTERED;;WHOLE ROCK;;;;;;;;;;;;;;;;;;;;;;;;;;;;;;;;;;;;;;;;;;;;;;;;;;;;;;;;;;;;;;;;;;;;;;;;;;;;;;;;;;;;;;;;;;;;;;;;;;;;;;;;;;;;;;;;;;;;;;;;;;;;;;;;;;;;;;;;;;;;;;;;;;;;;;;;;;;;;;;;;;;;;;;;;;;;;;;;;;;;;;;;;;;;;;;;;;;;;;;;;;;;;;;;;;;;;;;;;;;;;;;;;;;;;;;;;;;;;;;;;;0.51277;;;0.704868;;19.524;TIMS;;;;;15.677;TIMS;;;;39.488;TIMS;;;;;;;;;;;;;;;;;;;;;;;;;;;;;;;;;;;;;;;;;;;;;;;;;;;;;;;;;;;;;;;;;;;;;;;;;;;
1973;[2362] KANEOKA I. (1973);samp. PA-15;;DECCAN / NORTHERN DECCAN;MOUNT PAVAGARH;22.47;73.52;22.47;73.52;795;795;OUTCROP;;;SUBAERIAL;VOLCANIC ROCK;ANKARAMITE;;;;;;;;;;WHOLE ROCK;;;;;;;;;;;;;;;;;;;;;;;;;;;;;;;;;;;;;;;;;;2.16;1.77;;;;;;;;;;;;;;;;0.598;AES;;;;;;;;;;;;;;;;;;;;;;;7.161E-11;MS_ID;;;;;;;;;;;;;;;;;;;;;;;;;;;;;;;;;;;;;;;;;;;;;;;;;;;;;;;;;;;;;;;;;;;;;;;;;;;;;;;;;;;;;;;;;;;;;;;;;;;;;;;;;;;;;;;;;;;;;;;;;;;;;;;;;;;;;;;;;;;;;;;;;;;;;;;;;;;;;;;;;;;;;;;;;;;;;;;;;;;;;;;;;;;;;;;;;;;;;;;;;;;;;;;;;;;;;;;;;;;;;;;;;;;;;;;;;;;;;;;66.2;K-AR;;;;;;;;;;
1970;[2476] WOOD B. I. (1970);samp. B;;AUSTRAL-COOK ISLANDS / MANGAIA;VAU ROA STREAM VALLEY;-21.93;-157.93;-21.93;-157.93;;;OUTCROP;;;SUBAERIAL;VOLCANIC ROCK;ANKARAMITE;COARSE-GRAINED;;;;;;;;;WHOLE ROCK;;;;;;;;;;;;;;44.12;3.2;13.58;;;;;1.95;;10.2;10.87;9.92;;;;;;;1.2;NOT;;;2.12;NOT;;;0.31;2.32;;;;;;;;;;;;;;;;;;;;;;;;;;;;;;;;;;;;;;;;;;;;;;;;;;;;;;;;;;;;;;;;;;;;;;;;;;;;;;;;;;;;;;;;;;;;;;;;;;;;;;;;;;;;;;;;;;;;;;;;;;;;;;;;;;;;;;;;;;;;;;;;;;;;;;;;;;;;;;;;;;;;;;;;;;;;;;;;;;;;;;;;;;;;;;;;;;;;;;;;;;;;;;;;;;;;;;;;;;;;;;;;;;;;;;;;;;;;;;;;;;;;;;;;;;;;;;;;;;;;;;;;;;;;;;;;;;;;;;;;;;;;;;;;;;;;;
1970;[2476] WOOD B. I. (1970);samp. A;;AUSTRAL-COOK ISLANDS / MANGAIA;S SLOPE OF RANGIMOTIA;-21.93;-157.93;-21.93;-157.93;;;OUTCROP;;;SUBAERIAL;VOLCANIC ROCK;ANKARAMITE;FINE-GRAINED;;;;;;;;;WHOLE ROCK;;;;;;;;;;;;;;42.31;2.15;17.21;;;;;2.14;;19.56;9.32;8.74;;;;;;;1.76;NOT;;;3.42;NOT;;;0.32;2.42;;;;;;;;;;;;;;;;;;;;;;;;;;;;;;;;;;;;;;;;;;;;;;;;;;;;;;;;;;;;;;;;;;;;;;;;;;;;;;;;;;;;;;;;;;;;;;;;;;;;;;;;;;;;;;;;;;;;;;;;;;;;;;;;;;;;;;;;;;;;;;;;;;;;;;;;;;;;;;;;;;;;;;;;;;;;;;;;;;;;;;;;;;;;;;;;;;;;;;;;;;;;;;;;;;;;;;;;;;;;;;;;;;;;;;;;;;;;;;;;;;;;;;;;;;;;;;;;;;;;;;;;;;;;;;;;;;;;;;;;;;;;;;;;;;;;;
1970;[2582] MITCHELL-THOME R. C. (1970);samp. 13;;CAMEROON LINE / SAO TOME;WESTERN SLOPE OF SAO FRANCISCO, ILHEU DAS ROLAS;0.42;6.58;0.42;6.58;;;OUTCROP;;;SUBAERIAL;VOLCANIC ROCK;ANKARAMITE;;BASANITIC;;;;;;;;WHOLE ROCK;;;;;;;;;;;;;;40.65;5.1;10.86;;;;;5.55;;7.56;11.36;10.96;0.12;;;;;;0.82;NOT;;;2.54;NOT;;;0.87;;1.92;1.86;;;;;;;;;;;;;;;;;;;;;;;;;;;;;;;;;;;;;;;;;;;;;;;;;;;;;;;;;;;;;;;;;;;;;;;;;;;;;;;;;;;;;;;;;;;;;;;;;;;;;;;;;;;;;;;;;;;;;;;;;;;;;;;;;;;;;;;;;;;;;;;;;;;;;;;;;;;;;;;;;;;;;;;;;;;;;;;;;;;;;;;;;;;;;;;;;;;;;;;;;;;;;;;;;;;;;;;;;;;;;;;;;;;;;;;;;;;;;;;;;;;;;;;;;;;;;;;;;;;;;;;;;;;;;;;;;;;;;;;;;;;;;;;;;;;
1970;[2582] MITCHELL-THOME R. C. (1970);samp. 14;;CAMEROON LINE / SAO TOME;CONE OF PORTO ALEGRE;0.42;6.58;0.42;6.58;;;OUTCROP;;;SUBAERIAL;VOLCANIC ROCK;ANKARAMITE;;BASANITIC;;;;;;;;WHOLE ROCK;;;;;;;;;;;;;;41.29;7;10.99;;;;;9.64;;3.15;10.75;9.45;0.17;;;;;;1.62;NOT;;;2.9;NOT;;;1;;1.08;1.04;;;;;;;;;;;;;;;;;;;;;;;;;;;;;;;;;;;;;;;;;;;;;;;;;;;;;;;;;;;;;;;;;;;;;;;;;;;;;;;;;;;;;;;;;;;;;;;;;;;;;;;;;;;;;;;;;;;;;;;;;;;;;;;;;;;;;;;;;;;;;;;;;;;;;;;;;;;;;;;;;;;;;;;;;;;;;;;;;;;;;;;;;;;;;;;;;;;;;;;;;;;;;;;;;;;;;;;;;;;;;;;;;;;;;;;;;;;;;;;;;;;;;;;;;;;;;;;;;;;;;;;;;;;;;;;;;;;;;;;;;;;;;;;;;;;
1970;[2582] MITCHELL-THOME R. C. (1970);samp. 15;;CAMEROON LINE / SAO TOME;MONTE DA PRAIA JOANA, ILHEU DAS ROLAS;0.42;6.58;0.42;6.58;;;OUTCROP;;;SUBAERIAL;VOLCANIC ROCK;ANKARAMITE;;BASANITIC;;;;;;;;WHOLE ROCK;;;;;;;;;;;;;;41.7;5.1;10.37;;;;;7.54;;5.29;11.61;10.88;0.18;;;;;;1.19;NOT;;;3.88;NOT;;;0.93;;0.96;0.54;;;;;;;;;;;;;;;;;;;;;;;;;;;;;;;;;;;;;;;;;;;;;;;;;;;;;;;;;;;;;;;;;;;;;;;;;;;;;;;;;;;;;;;;;;;;;;;;;;;;;;;;;;;;;;;;;;;;;;;;;;;;;;;;;;;;;;;;;;;;;;;;;;;;;;;;;;;;;;;;;;;;;;;;;;;;;;;;;;;;;;;;;;;;;;;;;;;;;;;;;;;;;;;;;;;;;;;;;;;;;;;;;;;;;;;;;;;;;;;;;;;;;;;;;;;;;;;;;;;;;;;;;;;;;;;;;;;;;;;;;;;;;;;;;;;
1970;[2582] MITCHELL-THOME R. C. (1970);samp. 16;;CAMEROON LINE / SAO TOME;CONE OF LAMA-PORCO;0.42;6.58;0.42;6.58;;;OUTCROP;;;SUBAERIAL;VOLCANIC ROCK;ANKARAMITE;;BASANITIC;;;;;;;;WHOLE ROCK;;;;;;;;;;;;;;42.74;4.75;11.37;;;;;3.98;;7.5;10.93;10.82;0.16;;;;;;0.98;NOT;;;3.11;NOT;;;0.73;;1.93;1.23;;;;;;;;;;;;;;;;;;;;;;;;;;;;;;;;;;;;;;;;;;;;;;;;;;;;;;;;;;;;;;;;;;;;;;;;;;;;;;;;;;;;;;;;;;;;;;;;;;;;;;;;;;;;;;;;;;;;;;;;;;;;;;;;;;;;;;;;;;;;;;;;;;;;;;;;;;;;;;;;;;;;;;;;;;;;;;;;;;;;;;;;;;;;;;;;;;;;;;;;;;;;;;;;;;;;;;;;;;;;;;;;;;;;;;;;;;;;;;;;;;;;;;;;;;;;;;;;;;;;;;;;;;;;;;;;;;;;;;;;;;;;;;;;;;;
1958;[2709] WEST W. D. (1958);samp. 283;;DECCAN / NORTHERN DECCAN;SAURASHTRA AREA;23;72;23;72;;;OUTCROP;;;SUBAERIAL;VOLCANIC ROCK;ANKARAMITE;;FLOW;;;;;;;;WHOLE ROCK;;;;;;;;;;;;;;45.43;2.01;9.46;;;;;4.26;;6.77;11.69;14.5;0.21;;;;;;0.88;WET;;;1.36;WET;;;0.19;;2.36;0.44;;;;;;;;;;;;;;;;;;;;;;;;;;;;;;;;;;;;;;;;;;;;;;;;;;;;;;;;;;;;;;;;;;;;;;;;;;;;;;;;;;;;;;;;;;;;;;;;;;;;;;;;;;;;;;;;;;;;;;;;;;;;;;;;;;;;;;;;;;;;;;;;;;;;;;;;;;;;;;;;;;;;;;;;;;;;;;;;;;;;;;;;;;;;;;;;;;;;;;;;;;;;;;;;;;;;;;;;;;;;;;;;;;;;;;;;;;;;;;;;;;;;;;;;;;;;;;;;;;;;;;;;;;;;;;;;;;;;;;;;;;;;;;;;;;;