Year;CITATION;SAMPLE NAME;UNIQUE_ID;LOCATION;LOCATION COMMENT;LATITUDE (MIN.);LONGITUDE (MIN.);LATITUDE (MAX.);LONGITUDE (MAX.);ELEVATION (MIN.);ELEVATION (MAX.);SAMPLING TECHNIQUE;DRILLING DEPTH (MIN.);DRILLING DEPTH (MAX.);LAND/SEA (SAMPLING);ROCK TYPE;ROCK NAME;ROCK TEXTURE;SAMPLE COMMENT;AGE (MIN.);AGE (MAX.);GEOLOGICAL AGE;GEOLOGICAL AGE PREFIX;ERUPTION YEAR;ALTERATION;ALTERATION TYPE;TYPE OF MATERIAL;MINERAL / COMPONENT;SPOT (MINERAL);CRYSTAL;RIM / CORE (MINERAL GRAINS);GRAIN SIZE;PRIMARY/SECONDARY;INCLUSION TYPE;SPOT (INCLUSION);MINERAL (INCLUSION);RIM / CORE (INCLUSION);HOSTMINERAL (INCLUSION);HEATING;HEATING TEMPERATURE (?C);SIO2(WT%);TIO2(WT%);AL2O3(WT%);CR2O3(WT%);V2O3(WT%);V2O5(WT%);FE2O3T(WT%);FE2O3(WT%);FEOT(WT%);FEO(WT%);CAO(WT%);MGO(WT%);MNO(WT%);BAO(WT%);SRO(WT%);NIO(WT%);ZNO(WT%);COO(WT%);K2O(WT%);;;;NA2O(WT%);;;;P2O5(WT%);H2O(WT%);H2OP(WT%);H2OM(WT%);CO2(WT%);F(WT%);CL(WT%);CL2(WT%);SO3(WT%);S(WT%);LOI(WT%);O(WT%);SI(WT%);AL(WT%);TI(WT%);FE(WT%);MG(WT%);MN(WT%);CA(WT%);K(WT%): altern. values or methods;;;;NA(WT%);CR(WT%);NI(WT%);HE(CCMSTP/G);HE3(CCMSTP/G);HE4(CCMSTP/G): altern. values or methods;;;;LI(PPM);BE(PPM);B(PPM);F(PPM);NE20(CCMSTP/G);NE22(CCMSTP/G);P(PPM);S(PPM);CL(PPM);AR36(CCMSTP/G);AR40(CCMSTP/G);AR40(MOL/G): altern. values or methods;;;;AR40(PPB);K(PPM);SC(PPM): altern. values or methods;;;;;;TI(PPM);V(PPM): altern. values or methods;;;;CR(PPM): altern. values or methods;;;;MN(PPM);FE(PPM);CO(PPM): altern. values or methods;;;;;;NI(PPM): altern. values or methods;;;;;;CU(PPM): altern. values or methods;;;;ZN(PPM): altern. values or methods;;;;GA(PPM): altern. values or methods;;;;GE(PPM);AS(PPM);KR84(CCMSTP/G);RB(PPM): altern. values or methods;;;;SR(PPM): altern. values or methods;;;;Y(PPM): altern. values or methods;;;;ZR(PPM): altern. values or methods;;;;NB(PPM): altern. values or methods;;;;MO(PPM);RU(PPB);RH(PPB);PD(PPB);IN(PPM);SN(PPM);SB(PPM);XE132(CCMSTP/G);CS(PPM);BA(PPM): altern. values or methods;;;;LA(PPM): altern. values or methods;;;;CE(PPM): altern. values or methods;;;;PR(PPM): altern. values or methods;;;;ND(PPM): altern. values or methods;;;;SM(PPM): altern. values or methods;;;;EU(PPM): altern. values or methods;;;;GD(PPM);TB(PPM): altern. values or methods;;;;DY(PPM);HO(PPM);ER(PPM);TM(PPM);YB(PPM): altern. values or methods;;;;LU(PPM);HF(PPM): altern. values or methods;;;;TA(PPM);W(PPM);RE(PPB): altern. values or methods;;;;RE(PPT);OS(PPB): altern. values or methods;;;;OS(PPT);IR(PPB);PT(PPB);AU(PPB);HG(PPB);TL(PPM);PB(PPM): altern. values or methods;;;;PB210_ACT(DPM/G);TH(PPM): altern. values or methods;;;;TH(PPB);U(PPM): altern. values or methods;;;;U(PPB);CO2(PPM);H2O(PPM);ND143_ND144;ND148_ND144;SM147_ND144;SR87_SR86;RB87_SR86;PB206_PB204: altern. values or methods;;;;PB206_PB207;PB206_PB208;PB207_PB204: altern. values or methods;;;;PB207_PB206;PB208_PB204: altern. values or methods;;;;PB208_PB206;OS187_OS186;OS187_OS188: altern. values or methods;;;;RE187_OS188: altern. values or methods;;;;HF176_HF177;HE3_HE4;HE3_HE4(R/R(A)): altern. values or methods;;;;HE4_HE3: altern. values or methods;;;;;;HE4_HE3(R/R(A)): altern. values or methods;;;;AR38_AR36;AR40_AR36;NE20_NE22;NE21_NE22;XE129_XE132;PB206_U238;PB207_U235;PB210_U238;TH232_U238;U238_PB204;D13C(VS SMOW);D17O(VS VSMOW);D18O(PER MIL);D18O(VS PDB);D18O(VS SMOW);D18O(VS VSMOW);D34S(VS CDT);D44_40CA(VS SRM915A);D56FE(VS IRMM-014);DD(VS SMOW);ALBITE(MOL%);ACMITE(MOL%);ANORTHITE(MOL%);ENSTATITE(MOL%);FAYALITE(MOL%);FORSTERITE(MOL%);FERROSILITE(MOL%);HEMATITE(MOL%);LARNITE(MOL%);ORTHOCLASE(MOL%);PSEUDOBROOKITE(MOL%);TEPHROITE(MOL%);ULVOSPINEL(MOL%);WOLLASTONITE(MOL%);AGE(KA);AGE(MA): altern. values or methods;;;;;;;;AGE_PB207_PB206(MA);AGE_PB207_U235(MA);AGE_PB206_U238(MA);
2006;[9563] KOHUT E. J. (2006);samp. D14-1;;IZU-BONIN-MARIANA ARC / CHAIFE SEAMOUNT / DREDGE D14;SOUTHERN SEAMOUNT PROVINCE;14.6617;145.0003;14.6617;145.0003;-1860;-2188;DREDGE;;;SUBAQUATIC;VOLCANIC ROCK;ANKARAMITE;;LAVA;;;;;;;;MINERAL / COMPONENT (INCL. GROUNDMASS);OLIVINE;1;PHENOCRYST;CORE;;PRIMARY;;;;;;;;38.68;0.01;0.05;0.16;;;;;8.51;;0.27;48.84;0.14;;;0.24;;;;;;;0;EMP (EPMA);;;;;;;;;;;;;;;;;;;;;;;;;;;;;;;;;;;;;;;;;;;;;;;;;;;;;;;;;;;;;;;;;;;;;;;;;;;;;;;;;;;;;;;;;;;;;;;;;;;;;;;;;;;;;;;;;;;;;;;;;;;;;;;;;;;;;;;;;;;;;;;;;;;;;;;;;;;;;;;;;;;;;;;;;;;;;;;;;;;;;;;;;;;;;;;;;;;;;;;;;;;;;;;;;;;;;;;;;;;;;;;;;;;;;;;;;;;;;;;;;;;;;;;;;;;;;;;;;;;;;;;;;;;;;;;;;;;;91.1;;;;;;;;;;;;;;;;;;;;;
2006;[9563] KOHUT E. J. (2006);samp. D14-1;;IZU-BONIN-MARIANA ARC / CHAIFE SEAMOUNT / DREDGE D14;SOUTHERN SEAMOUNT PROVINCE;14.6617;145.0003;14.6617;145.0003;-1860;-2188;DREDGE;;;SUBAQUATIC;VOLCANIC ROCK;ANKARAMITE;;LAVA;;;;;;;;MINERAL / COMPONENT (INCL. GROUNDMASS);OLIVINE;2;PHENOCRYST;CORE;;PRIMARY;;;;;;;;38.7;0.02;0.03;0.11;;;;;8.42;;0.25;48.71;0.15;;;0.25;;;;;;;0;EMP (EPMA);;;;;;;;;;;;;;;;;;;;;;;;;;;;;;;;;;;;;;;;;;;;;;;;;;;;;;;;;;;;;;;;;;;;;;;;;;;;;;;;;;;;;;;;;;;;;;;;;;;;;;;;;;;;;;;;;;;;;;;;;;;;;;;;;;;;;;;;;;;;;;;;;;;;;;;;;;;;;;;;;;;;;;;;;;;;;;;;;;;;;;;;;;;;;;;;;;;;;;;;;;;;;;;;;;;;;;;;;;;;;;;;;;;;;;;;;;;;;;;;;;;;;;;;;;;;;;;;;;;;;;;;;;;;;;;;;;;;91.2;;;;;;;;;;;;;;;;;;;;;
2006;[9563] KOHUT E. J. (2006);samp. D14-1;;IZU-BONIN-MARIANA ARC / CHAIFE SEAMOUNT / DREDGE D14;SOUTHERN SEAMOUNT PROVINCE;14.6617;145.0003;14.6617;145.0003;-1860;-2188;DREDGE;;;SUBAQUATIC;VOLCANIC ROCK;ANKARAMITE;;LAVA;;;;;;;;MINERAL / COMPONENT (INCL. GROUNDMASS);OLIVINE;3;PHENOCRYST;CORE;;PRIMARY;;;;;;;;36.9;0.02;0.36;0.17;;;;;8.27;;0.27;47.69;0.13;;;0.26;;;;;;;0.03;EMP (EPMA);;;;;;;;;;;;;;;;;;;;;;;;;;;;;;;;;;;;;;;;;;;;;;;;;;;;;;;;;;;;;;;;;;;;;;;;;;;;;;;;;;;;;;;;;;;;;;;;;;;;;;;;;;;;;;;;;;;;;;;;;;;;;;;;;;;;;;;;;;;;;;;;;;;;;;;;;;;;;;;;;;;;;;;;;;;;;;;;;;;;;;;;;;;;;;;;;;;;;;;;;;;;;;;;;;;;;;;;;;;;;;;;;;;;;;;;;;;;;;;;;;;;;;;;;;;;;;;;;;;;;;;;;;;;;;;;;;;;91.1;;;;;;;;;;;;;;;;;;;;;
2006;[9563] KOHUT E. J. (2006);samp. D14-1;;IZU-BONIN-MARIANA ARC / CHAIFE SEAMOUNT / DREDGE D14;SOUTHERN SEAMOUNT PROVINCE;14.6617;145.0003;14.6617;145.0003;-1860;-2188;DREDGE;;;SUBAQUATIC;VOLCANIC ROCK;ANKARAMITE;;LAVA;;;;;;;;MINERAL / COMPONENT (INCL. GROUNDMASS);OLIVINE;4;PHENOCRYST;CORE;;PRIMARY;;;;;;;;38.12;0.03;0.03;0.08;;;;;9.13;;0.28;48.3;0.15;;;0.15;;;;;;;0.01;EMP (EPMA);;;;;;;;;;;;;;;;;;;;;;;;;;;;;;;;;;;;;;;;;;;;;;;;;;;;;;;;;;;;;;;;;;;;;;;;;;;;;;;;;;;;;;;;;;;;;;;;;;;;;;;;;;;;;;;;;;;;;;;;;;;;;;;;;;;;;;;;;;;;;;;;;;;;;;;;;;;;;;;;;;;;;;;;;;;;;;;;;;;;;;;;;;;;;;;;;;;;;;;;;;;;;;;;;;;;;;;;;;;;;;;;;;;;;;;;;;;;;;;;;;;;;;;;;;;;;;;;;;;;;;;;;;;;;;;;;;;;90.4;;;;;;;;;;;;;;;;;;;;;
2006;[9563] KOHUT E. J. (2006);samp. D14-1;;IZU-BONIN-MARIANA ARC / CHAIFE SEAMOUNT / DREDGE D14;SOUTHERN SEAMOUNT PROVINCE;14.6617;145.0003;14.6617;145.0003;-1860;-2188;DREDGE;;;SUBAQUATIC;VOLCANIC ROCK;ANKARAMITE;;LAVA;;;;;;;;MINERAL / COMPONENT (INCL. GROUNDMASS);OLIVINE;5;PHENOCRYST;CORE;;PRIMARY;;;;;;;;38.35;0.03;0;0.04;;;;;10.84;;0.04;48.03;0.17;;;0.1;;;;;;;0.01;EMP (EPMA);;;;;;;;;;;;;;;;;;;;;;;;;;;;;;;;;;;;;;;;;;;;;;;;;;;;;;;;;;;;;;;;;;;;;;;;;;;;;;;;;;;;;;;;;;;;;;;;;;;;;;;;;;;;;;;;;;;;;;;;;;;;;;;;;;;;;;;;;;;;;;;;;;;;;;;;;;;;;;;;;;;;;;;;;;;;;;;;;;;;;;;;;;;;;;;;;;;;;;;;;;;;;;;;;;;;;;;;;;;;;;;;;;;;;;;;;;;;;;;;;;;;;;;;;;;;;;;;;;;;;;;;;;;;;;;;;;;;88.8;;;;;;;;;;;;;;;;;;;;;
2006;[9563] KOHUT E. J. (2006);samp. D14-1;;IZU-BONIN-MARIANA ARC / CHAIFE SEAMOUNT / DREDGE D14;SOUTHERN SEAMOUNT PROVINCE;14.6617;145.0003;14.6617;145.0003;-1860;-2188;DREDGE;;;SUBAQUATIC;VOLCANIC ROCK;ANKARAMITE;;LAVA;;;;;;;;MINERAL / COMPONENT (INCL. GROUNDMASS);OLIVINE;6;PHENOCRYST;CORE;;PRIMARY;;;;;;;;38.75;0.05;0.06;0.04;;;;;10.42;;0.08;48.69;0.12;;;0.13;;;;;;;0;EMP (EPMA);;;;;;;;;;;;;;;;;;;;;;;;;;;;;;;;;;;;;;;;;;;;;;;;;;;;;;;;;;;;;;;;;;;;;;;;;;;;;;;;;;;;;;;;;;;;;;;;;;;;;;;;;;;;;;;;;;;;;;;;;;;;;;;;;;;;;;;;;;;;;;;;;;;;;;;;;;;;;;;;;;;;;;;;;;;;;;;;;;;;;;;;;;;;;;;;;;;;;;;;;;;;;;;;;;;;;;;;;;;;;;;;;;;;;;;;;;;;;;;;;;;;;;;;;;;;;;;;;;;;;;;;;;;;;;;;;;;;89.3;;;;;;;;;;;;;;;;;;;;;
2006;[9563] KOHUT E. J. (2006);samp. D14-1;;IZU-BONIN-MARIANA ARC / CHAIFE SEAMOUNT / DREDGE D14;SOUTHERN SEAMOUNT PROVINCE;14.6617;145.0003;14.6617;145.0003;-1860;-2188;DREDGE;;;SUBAQUATIC;VOLCANIC ROCK;ANKARAMITE;;LAVA;;;;;;;;MINERAL / COMPONENT (INCL. GROUNDMASS);OLIVINE;7;PHENOCRYST;CORE;;PRIMARY;;;;;;;;38.62;0.03;0.01;0.06;;;;;10.33;;0.2;48.1;0.15;;;0.15;;;;;;;0.01;EMP (EPMA);;;;;;;;;;;;;;;;;;;;;;;;;;;;;;;;;;;;;;;;;;;;;;;;;;;;;;;;;;;;;;;;;;;;;;;;;;;;;;;;;;;;;;;;;;;;;;;;;;;;;;;;;;;;;;;;;;;;;;;;;;;;;;;;;;;;;;;;;;;;;;;;;;;;;;;;;;;;;;;;;;;;;;;;;;;;;;;;;;;;;;;;;;;;;;;;;;;;;;;;;;;;;;;;;;;;;;;;;;;;;;;;;;;;;;;;;;;;;;;;;;;;;;;;;;;;;;;;;;;;;;;;;;;;;;;;;;;;89.2;;;;;;;;;;;;;;;;;;;;;
2006;[9563] KOHUT E. J. (2006);samp. D14-1;;IZU-BONIN-MARIANA ARC / CHAIFE SEAMOUNT / DREDGE D14;SOUTHERN SEAMOUNT PROVINCE;14.6617;145.0003;14.6617;145.0003;-1860;-2188;DREDGE;;;SUBAQUATIC;VOLCANIC ROCK;ANKARAMITE;;LAVA;;;;;;;;MINERAL / COMPONENT (INCL. GROUNDMASS);OLIVINE;8;PHENOCRYST;CORE;;PRIMARY;;;;;;;;38.33;0.04;0.05;0.11;;;;;9.41;;0.31;48.45;0.17;;;0.2;;;;;;;0.02;EMP (EPMA);;;;;;;;;;;;;;;;;;;;;;;;;;;;;;;;;;;;;;;;;;;;;;;;;;;;;;;;;;;;;;;;;;;;;;;;;;;;;;;;;;;;;;;;;;;;;;;;;;;;;;;;;;;;;;;;;;;;;;;;;;;;;;;;;;;;;;;;;;;;;;;;;;;;;;;;;;;;;;;;;;;;;;;;;;;;;;;;;;;;;;;;;;;;;;;;;;;;;;;;;;;;;;;;;;;;;;;;;;;;;;;;;;;;;;;;;;;;;;;;;;;;;;;;;;;;;;;;;;;;;;;;;;;;;;;;;;;;90.2;;;;;;;;;;;;;;;;;;;;;
2006;[9563] KOHUT E. J. (2006);samp. D14-1;;IZU-BONIN-MARIANA ARC / CHAIFE SEAMOUNT / DREDGE D14;SOUTHERN SEAMOUNT PROVINCE;14.6617;145.0003;14.6617;145.0003;-1860;-2188;DREDGE;;;SUBAQUATIC;VOLCANIC ROCK;ANKARAMITE;;LAVA;;;;;;;;MINERAL / COMPONENT (INCL. GROUNDMASS);OLIVINE;9;PHENOCRYST;CORE;;PRIMARY;;;;;;;;39.1;0.02;0.03;0.02;;;;;8.32;;0.07;49.25;0.11;;;0.19;;;;;;;0.01;EMP (EPMA);;;;;;;;;;;;;;;;;;;;;;;;;;;;;;;;;;;;;;;;;;;;;;;;;;;;;;;;;;;;;;;;;;;;;;;;;;;;;;;;;;;;;;;;;;;;;;;;;;;;;;;;;;;;;;;;;;;;;;;;;;;;;;;;;;;;;;;;;;;;;;;;;;;;;;;;;;;;;;;;;;;;;;;;;;;;;;;;;;;;;;;;;;;;;;;;;;;;;;;;;;;;;;;;;;;;;;;;;;;;;;;;;;;;;;;;;;;;;;;;;;;;;;;;;;;;;;;;;;;;;;;;;;;;;;;;;;;;91.3;;;;;;;;;;;;;;;;;;;;;
2006;[9563] KOHUT E. J. (2006);samp. D14-1;;IZU-BONIN-MARIANA ARC / CHAIFE SEAMOUNT / DREDGE D14;SOUTHERN SEAMOUNT PROVINCE;14.6617;145.0003;14.6617;145.0003;-1860;-2188;DREDGE;;;SUBAQUATIC;VOLCANIC ROCK;ANKARAMITE;;LAVA;;;;;;;;MINERAL / COMPONENT (INCL. GROUNDMASS);OLIVINE;10;PHENOCRYST;CORE;;PRIMARY;;;;;;;;39.21;0.01;0.03;0.04;;;;;8.62;;0.07;49.04;0.16;;;0.18;;;;;;;0;EMP (EPMA);;;;;;;;;;;;;;;;;;;;;;;;;;;;;;;;;;;;;;;;;;;;;;;;;;;;;;;;;;;;;;;;;;;;;;;;;;;;;;;;;;;;;;;;;;;;;;;;;;;;;;;;;;;;;;;;;;;;;;;;;;;;;;;;;;;;;;;;;;;;;;;;;;;;;;;;;;;;;;;;;;;;;;;;;;;;;;;;;;;;;;;;;;;;;;;;;;;;;;;;;;;;;;;;;;;;;;;;;;;;;;;;;;;;;;;;;;;;;;;;;;;;;;;;;;;;;;;;;;;;;;;;;;;;;;;;;;;;91;;;;;;;;;;;;;;;;;;;;;
2006;[9563] KOHUT E. J. (2006);samp. D14-1;;IZU-BONIN-MARIANA ARC / CHAIFE SEAMOUNT / DREDGE D14;SOUTHERN SEAMOUNT PROVINCE;14.6617;145.0003;14.6617;145.0003;-1860;-2188;DREDGE;;;SUBAQUATIC;VOLCANIC ROCK;ANKARAMITE;;LAVA;;;;;;;;MINERAL / COMPONENT (INCL. GROUNDMASS);OLIVINE;11;PHENOCRYST;CORE;;PRIMARY;;;;;;;;39.04;0.01;0.04;0.05;;;;;9.4;;0.18;48.71;0.13;;;0.21;;;;;;;0.02;EMP (EPMA);;;;;;;;;;;;;;;;;;;;;;;;;;;;;;;;;;;;;;;;;;;;;;;;;;;;;;;;;;;;;;;;;;;;;;;;;;;;;;;;;;;;;;;;;;;;;;;;;;;;;;;;;;;;;;;;;;;;;;;;;;;;;;;;;;;;;;;;;;;;;;;;;;;;;;;;;;;;;;;;;;;;;;;;;;;;;;;;;;;;;;;;;;;;;;;;;;;;;;;;;;;;;;;;;;;;;;;;;;;;;;;;;;;;;;;;;;;;;;;;;;;;;;;;;;;;;;;;;;;;;;;;;;;;;;;;;;;;90.2;;;;;;;;;;;;;;;;;;;;;
2006;[9563] KOHUT E. J. (2006);samp. D14-1;;IZU-BONIN-MARIANA ARC / CHAIFE SEAMOUNT / DREDGE D14;SOUTHERN SEAMOUNT PROVINCE;14.6617;145.0003;14.6617;145.0003;-1860;-2188;DREDGE;;;SUBAQUATIC;VOLCANIC ROCK;ANKARAMITE;;LAVA;;;;;;;;MINERAL / COMPONENT (INCL. GROUNDMASS);OLIVINE;12;PHENOCRYST;CORE;;PRIMARY;;;;;;;;38.82;0.02;0.03;0.05;;;;;9.24;;0.19;49.39;0.12;;;0.15;;;;;;;0;EMP (EPMA);;;;;;;;;;;;;;;;;;;;;;;;;;;;;;;;;;;;;;;;;;;;;;;;;;;;;;;;;;;;;;;;;;;;;;;;;;;;;;;;;;;;;;;;;;;;;;;;;;;;;;;;;;;;;;;;;;;;;;;;;;;;;;;;;;;;;;;;;;;;;;;;;;;;;;;;;;;;;;;;;;;;;;;;;;;;;;;;;;;;;;;;;;;;;;;;;;;;;;;;;;;;;;;;;;;;;;;;;;;;;;;;;;;;;;;;;;;;;;;;;;;;;;;;;;;;;;;;;;;;;;;;;;;;;;;;;;;;90.5;;;;;;;;;;;;;;;;;;;;;
2006;[9563] KOHUT E. J. (2006);samp. D14-1;;IZU-BONIN-MARIANA ARC / CHAIFE SEAMOUNT / DREDGE D14;SOUTHERN SEAMOUNT PROVINCE;14.6617;145.0003;14.6617;145.0003;-1860;-2188;DREDGE;;;SUBAQUATIC;VOLCANIC ROCK;ANKARAMITE;;LAVA;;;;;;;;MINERAL / COMPONENT (INCL. GROUNDMASS);OLIVINE;13;PHENOCRYST;CORE;;PRIMARY;;;;;;;;38.44;0.02;0.1;0.07;;;;;8.14;;0.24;52.66;0.13;;;0.15;;;;;;;0.03;EMP (EPMA);;;;;;;;;;;;;;;;;;;;;;;;;;;;;;;;;;;;;;;;;;;;;;;;;;;;;;;;;;;;;;;;;;;;;;;;;;;;;;;;;;;;;;;;;;;;;;;;;;;;;;;;;;;;;;;;;;;;;;;;;;;;;;;;;;;;;;;;;;;;;;;;;;;;;;;;;;;;;;;;;;;;;;;;;;;;;;;;;;;;;;;;;;;;;;;;;;;;;;;;;;;;;;;;;;;;;;;;;;;;;;;;;;;;;;;;;;;;;;;;;;;;;;;;;;;;;;;;;;;;;;;;;;;;;;;;;;;;92;;;;;;;;;;;;;;;;;;;;;
2006;[9563] KOHUT E. J. (2006);samp. D14-1;;IZU-BONIN-MARIANA ARC / CHAIFE SEAMOUNT / DREDGE D14;SOUTHERN SEAMOUNT PROVINCE;14.6617;145.0003;14.6617;145.0003;-1860;-2188;DREDGE;;;SUBAQUATIC;VOLCANIC ROCK;ANKARAMITE;;LAVA;;;;;;;;MINERAL / COMPONENT (INCL. GROUNDMASS);OLIVINE;14;PHENOCRYST;CORE;;PRIMARY;;;;;;;;38.26;0.03;0.03;0.06;;;;;10.95;;0.07;45.58;0.15;;;0.15;;;;;;;0;EMP (EPMA);;;;;;;;;;;;;;;;;;;;;;;;;;;;;;;;;;;;;;;;;;;;;;;;;;;;;;;;;;;;;;;;;;;;;;;;;;;;;;;;;;;;;;;;;;;;;;;;;;;;;;;;;;;;;;;;;;;;;;;;;;;;;;;;;;;;;;;;;;;;;;;;;;;;;;;;;;;;;;;;;;;;;;;;;;;;;;;;;;;;;;;;;;;;;;;;;;;;;;;;;;;;;;;;;;;;;;;;;;;;;;;;;;;;;;;;;;;;;;;;;;;;;;;;;;;;;;;;;;;;;;;;;;;;;;;;;;;;88.1;;;;;;;;;;;;;;;;;;;;;
2006;[9563] KOHUT E. J. (2006);samp. D14-1;;IZU-BONIN-MARIANA ARC / CHAIFE SEAMOUNT / DREDGE D14;SOUTHERN SEAMOUNT PROVINCE;14.6617;145.0003;14.6617;145.0003;-1860;-2188;DREDGE;;;SUBAQUATIC;VOLCANIC ROCK;ANKARAMITE;;LAVA;;;;;;;;MINERAL / COMPONENT (INCL. GROUNDMASS);OLIVINE;15;PHENOCRYST;CORE;;PRIMARY;;;;;;;;37.36;0.03;0.03;0.05;;;;;10.75;;0.04;49.27;0.13;;;0.14;;;;;;;0;EMP (EPMA);;;;;;;;;;;;;;;;;;;;;;;;;;;;;;;;;;;;;;;;;;;;;;;;;;;;;;;;;;;;;;;;;;;;;;;;;;;;;;;;;;;;;;;;;;;;;;;;;;;;;;;;;;;;;;;;;;;;;;;;;;;;;;;;;;;;;;;;;;;;;;;;;;;;;;;;;;;;;;;;;;;;;;;;;;;;;;;;;;;;;;;;;;;;;;;;;;;;;;;;;;;;;;;;;;;;;;;;;;;;;;;;;;;;;;;;;;;;;;;;;;;;;;;;;;;;;;;;;;;;;;;;;;;;;;;;;;;;89.1;;;;;;;;;;;;;;;;;;;;;
2006;[9563] KOHUT E. J. (2006);samp. D14-1;;IZU-BONIN-MARIANA ARC / CHAIFE SEAMOUNT / DREDGE D14;SOUTHERN SEAMOUNT PROVINCE;14.6617;145.0003;14.6617;145.0003;-1860;-2188;DREDGE;;;SUBAQUATIC;VOLCANIC ROCK;ANKARAMITE;;LAVA;;;;;;;;MINERAL / COMPONENT (INCL. GROUNDMASS);OLIVINE;16;PHENOCRYST;CORE;;PRIMARY;;;;;;;;36.83;0.03;0.04;0.07;;;;;8.09;;0.21;49.37;0.14;;;0.19;;;;;;;0.03;EMP (EPMA);;;;;;;;;;;;;;;;;;;;;;;;;;;;;;;;;;;;;;;;;;;;;;;;;;;;;;;;;;;;;;;;;;;;;;;;;;;;;;;;;;;;;;;;;;;;;;;;;;;;;;;;;;;;;;;;;;;;;;;;;;;;;;;;;;;;;;;;;;;;;;;;;;;;;;;;;;;;;;;;;;;;;;;;;;;;;;;;;;;;;;;;;;;;;;;;;;;;;;;;;;;;;;;;;;;;;;;;;;;;;;;;;;;;;;;;;;;;;;;;;;;;;;;;;;;;;;;;;;;;;;;;;;;;;;;;;;;;91.6;;;;;;;;;;;;;;;;;;;;;
2006;[9563] KOHUT E. J. (2006);samp. D14-1;;IZU-BONIN-MARIANA ARC / CHAIFE SEAMOUNT / DREDGE D14;SOUTHERN SEAMOUNT PROVINCE;14.6617;145.0003;14.6617;145.0003;-1860;-2188;DREDGE;;;SUBAQUATIC;VOLCANIC ROCK;ANKARAMITE;;LAVA;;;;;;;;MINERAL / COMPONENT (INCL. GROUNDMASS);OLIVINE;17;PHENOCRYST;CORE;;PRIMARY;;;;;;;;38.95;0.02;0.02;0.06;;;;;9.66;;0.11;49.06;0.17;;;0.24;;;;;;;0;EMP (EPMA);;;;;;;;;;;;;;;;;;;;;;;;;;;;;;;;;;;;;;;;;;;;;;;;;;;;;;;;;;;;;;;;;;;;;;;;;;;;;;;;;;;;;;;;;;;;;;;;;;;;;;;;;;;;;;;;;;;;;;;;;;;;;;;;;;;;;;;;;;;;;;;;;;;;;;;;;;;;;;;;;;;;;;;;;;;;;;;;;;;;;;;;;;;;;;;;;;;;;;;;;;;;;;;;;;;;;;;;;;;;;;;;;;;;;;;;;;;;;;;;;;;;;;;;;;;;;;;;;;;;;;;;;;;;;;;;;;;;90.1;;;;;;;;;;;;;;;;;;;;;
2006;[9563] KOHUT E. J. (2006);samp. D14-1;;IZU-BONIN-MARIANA ARC / CHAIFE SEAMOUNT / DREDGE D14;SOUTHERN SEAMOUNT PROVINCE;14.6617;145.0003;14.6617;145.0003;-1860;-2188;DREDGE;;;SUBAQUATIC;VOLCANIC ROCK;ANKARAMITE;;LAVA;;;;;;;;MINERAL / COMPONENT (INCL. GROUNDMASS);OLIVINE;18;GROUNDMASS;;;PRIMARY;;;;;;;;37.82;0.03;0.05;0.03;;;;;13.8;;0.08;44.74;0.2;;;0.12;;;;;;;0;EMP (EPMA);;;;;;;;;;;;;;;;;;;;;;;;;;;;;;;;;;;;;;;;;;;;;;;;;;;;;;;;;;;;;;;;;;;;;;;;;;;;;;;;;;;;;;;;;;;;;;;;;;;;;;;;;;;;;;;;;;;;;;;;;;;;;;;;;;;;;;;;;;;;;;;;;;;;;;;;;;;;;;;;;;;;;;;;;;;;;;;;;;;;;;;;;;;;;;;;;;;;;;;;;;;;;;;;;;;;;;;;;;;;;;;;;;;;;;;;;;;;;;;;;;;;;;;;;;;;;;;;;;;;;;;;;;;;;;;;;;;;85.2;;;;;;;;;;;;;;;;;;;;;
2006;[9563] KOHUT E. J. (2006);samp. D14-1;;IZU-BONIN-MARIANA ARC / CHAIFE SEAMOUNT / DREDGE D14;SOUTHERN SEAMOUNT PROVINCE;14.6617;145.0003;14.6617;145.0003;-1860;-2188;DREDGE;;;SUBAQUATIC;VOLCANIC ROCK;ANKARAMITE;;LAVA;;;;;;;;MINERAL / COMPONENT (INCL. GROUNDMASS);OLIVINE;19;GROUNDMASS;;;PRIMARY;;;;;;;;38.11;0.01;0.08;0.06;;;;;12.78;;0.08;45.68;0.15;;;0.1;;;;;;;0;EMP (EPMA);;;;;;;;;;;;;;;;;;;;;;;;;;;;;;;;;;;;;;;;;;;;;;;;;;;;;;;;;;;;;;;;;;;;;;;;;;;;;;;;;;;;;;;;;;;;;;;;;;;;;;;;;;;;;;;;;;;;;;;;;;;;;;;;;;;;;;;;;;;;;;;;;;;;;;;;;;;;;;;;;;;;;;;;;;;;;;;;;;;;;;;;;;;;;;;;;;;;;;;;;;;;;;;;;;;;;;;;;;;;;;;;;;;;;;;;;;;;;;;;;;;;;;;;;;;;;;;;;;;;;;;;;;;;;;;;;;;;86.4;;;;;;;;;;;;;;;;;;;;;
2006;[9563] KOHUT E. J. (2006);samp. D14-1;;IZU-BONIN-MARIANA ARC / CHAIFE SEAMOUNT / DREDGE D14;SOUTHERN SEAMOUNT PROVINCE;14.6617;145.0003;14.6617;145.0003;-1860;-2188;DREDGE;;;SUBAQUATIC;VOLCANIC ROCK;ANKARAMITE;;LAVA;;;;;;;;MINERAL / COMPONENT (INCL. GROUNDMASS);OLIVINE;20;GROUNDMASS;;;PRIMARY;;;;;;;;38.04;0.03;0.03;0.04;;;;;14.05;;0.08;45.26;0.14;;;0.1;;;;;;;0;EMP (EPMA);;;;;;;;;;;;;;;;;;;;;;;;;;;;;;;;;;;;;;;;;;;;;;;;;;;;;;;;;;;;;;;;;;;;;;;;;;;;;;;;;;;;;;;;;;;;;;;;;;;;;;;;;;;;;;;;;;;;;;;;;;;;;;;;;;;;;;;;;;;;;;;;;;;;;;;;;;;;;;;;;;;;;;;;;;;;;;;;;;;;;;;;;;;;;;;;;;;;;;;;;;;;;;;;;;;;;;;;;;;;;;;;;;;;;;;;;;;;;;;;;;;;;;;;;;;;;;;;;;;;;;;;;;;;;;;;;;;;85.2;;;;;;;;;;;;;;;;;;;;;
2006;[9563] KOHUT E. J. (2006);samp. D14-1;;IZU-BONIN-MARIANA ARC / CHAIFE SEAMOUNT / DREDGE D14;SOUTHERN SEAMOUNT PROVINCE;14.6617;145.0003;14.6617;145.0003;-1860;-2188;DREDGE;;;SUBAQUATIC;VOLCANIC ROCK;ANKARAMITE;;LAVA;;;;;;;;MINERAL / COMPONENT (INCL. GROUNDMASS);OLIVINE;21;GROUNDMASS;;;PRIMARY;;;;;;;;36.61;0.04;0.08;0.05;;;;;13.66;;0.08;46.92;0.2;;;0.1;;;;;;;0.02;EMP (EPMA);;;;;;;;;;;;;;;;;;;;;;;;;;;;;;;;;;;;;;;;;;;;;;;;;;;;;;;;;;;;;;;;;;;;;;;;;;;;;;;;;;;;;;;;;;;;;;;;;;;;;;;;;;;;;;;;;;;;;;;;;;;;;;;;;;;;;;;;;;;;;;;;;;;;;;;;;;;;;;;;;;;;;;;;;;;;;;;;;;;;;;;;;;;;;;;;;;;;;;;;;;;;;;;;;;;;;;;;;;;;;;;;;;;;;;;;;;;;;;;;;;;;;;;;;;;;;;;;;;;;;;;;;;;;;;;;;;;;86;;;;;;;;;;;;;;;;;;;;;
2006;[9563] KOHUT E. J. (2006);samp. D14-1;;IZU-BONIN-MARIANA ARC / CHAIFE SEAMOUNT / DREDGE D14;SOUTHERN SEAMOUNT PROVINCE;14.6617;145.0003;14.6617;145.0003;-1860;-2188;DREDGE;;;SUBAQUATIC;VOLCANIC ROCK;ANKARAMITE;;LAVA;;;;;;;;MINERAL / COMPONENT (INCL. GROUNDMASS);OLIVINE;5;PHENOCRYST;RIM;;PRIMARY;;;;;;;;37.88;0.01;0.1;0.03;;;;;10.68;;0.07;46.21;0.16;;;0.11;;;;;;;0.01;EMP (EPMA);;;;;;;;;;;;;;;;;;;;;;;;;;;;;;;;;;;;;;;;;;;;;;;;;;;;;;;;;;;;;;;;;;;;;;;;;;;;;;;;;;;;;;;;;;;;;;;;;;;;;;;;;;;;;;;;;;;;;;;;;;;;;;;;;;;;;;;;;;;;;;;;;;;;;;;;;;;;;;;;;;;;;;;;;;;;;;;;;;;;;;;;;;;;;;;;;;;;;;;;;;;;;;;;;;;;;;;;;;;;;;;;;;;;;;;;;;;;;;;;;;;;;;;;;;;;;;;;;;;;;;;;;;;;;;;;;;;;88.5;;;;;;;;;;;;;;;;;;;;;
2006;[9563] KOHUT E. J. (2006);samp. D14-1;;IZU-BONIN-MARIANA ARC / CHAIFE SEAMOUNT / DREDGE D14;SOUTHERN SEAMOUNT PROVINCE;14.6617;145.0003;14.6617;145.0003;-1860;-2188;DREDGE;;;SUBAQUATIC;VOLCANIC ROCK;ANKARAMITE;;LAVA;;;;;;;;MINERAL / COMPONENT (INCL. GROUNDMASS);OLIVINE;6;PHENOCRYST;RIM;;PRIMARY;;;;;;;;37.54;0.03;0.01;0.06;;;;;10.72;;0.06;47.01;0.16;;;0.12;;;;;;;0;EMP (EPMA);;;;;;;;;;;;;;;;;;;;;;;;;;;;;;;;;;;;;;;;;;;;;;;;;;;;;;;;;;;;;;;;;;;;;;;;;;;;;;;;;;;;;;;;;;;;;;;;;;;;;;;;;;;;;;;;;;;;;;;;;;;;;;;;;;;;;;;;;;;;;;;;;;;;;;;;;;;;;;;;;;;;;;;;;;;;;;;;;;;;;;;;;;;;;;;;;;;;;;;;;;;;;;;;;;;;;;;;;;;;;;;;;;;;;;;;;;;;;;;;;;;;;;;;;;;;;;;;;;;;;;;;;;;;;;;;;;;;88.7;;;;;;;;;;;;;;;;;;;;;