Year;CITATION;SAMPLE NAME;UNIQUE_ID;LOCATION;LOCATION COMMENT;LATITUDE (MIN.);LONGITUDE (MIN.);LATITUDE (MAX.);LONGITUDE (MAX.);ELEVATION (MIN.);ELEVATION (MAX.);SAMPLING TECHNIQUE;DRILLING DEPTH (MIN.);DRILLING DEPTH (MAX.);LAND/SEA (SAMPLING);ROCK TYPE;ROCK NAME;ROCK TEXTURE;SAMPLE COMMENT;AGE (MIN.);AGE (MAX.);GEOLOGICAL AGE;GEOLOGICAL AGE PREFIX;ERUPTION YEAR;ALTERATION;ALTERATION TYPE;TYPE OF MATERIAL;MINERAL / COMPONENT;SPOT (MINERAL);CRYSTAL;RIM / CORE (MINERAL GRAINS);GRAIN SIZE;PRIMARY/SECONDARY;INCLUSION TYPE;SPOT (INCLUSION);MINERAL (INCLUSION);RIM / CORE (INCLUSION);HOSTMINERAL (INCLUSION);HEATING;HEATING TEMPERATURE (?C);SIO2(WT%);TIO2(WT%);AL2O3(WT%);CR2O3(WT%);V2O3(WT%);V2O5(WT%);FE2O3T(WT%);FE2O3(WT%);FEOT(WT%);FEO(WT%);CAO(WT%);MGO(WT%);MNO(WT%);BAO(WT%);SRO(WT%);NIO(WT%);ZNO(WT%);COO(WT%);K2O(WT%);;;;NA2O(WT%);;;;P2O5(WT%);H2O(WT%);H2OP(WT%);H2OM(WT%);CO2(WT%);F(WT%);CL(WT%);CL2(WT%);SO3(WT%);S(WT%);LOI(WT%);O(WT%);SI(WT%);AL(WT%);TI(WT%);FE(WT%);MG(WT%);MN(WT%);CA(WT%);K(WT%): altern. values or methods;;;;NA(WT%);CR(WT%);NI(WT%);HE(CCMSTP/G);HE3(CCMSTP/G);HE4(CCMSTP/G): altern. values or methods;;;;LI(PPM);BE(PPM);B(PPM);F(PPM);NE20(CCMSTP/G);NE22(CCMSTP/G);P(PPM);S(PPM);CL(PPM);AR36(CCMSTP/G);AR40(CCMSTP/G);AR40(MOL/G): altern. values or methods;;;;AR40(PPB);K(PPM);SC(PPM): altern. values or methods;;;;;;TI(PPM);V(PPM): altern. values or methods;;;;CR(PPM): altern. values or methods;;;;MN(PPM);FE(PPM);CO(PPM): altern. values or methods;;;;;;NI(PPM): altern. values or methods;;;;;;CU(PPM): altern. values or methods;;;;ZN(PPM): altern. values or methods;;;;GA(PPM): altern. values or methods;;;;GE(PPM);AS(PPM);KR84(CCMSTP/G);RB(PPM): altern. values or methods;;;;SR(PPM): altern. values or methods;;;;Y(PPM): altern. values or methods;;;;ZR(PPM): altern. values or methods;;;;NB(PPM): altern. values or methods;;;;MO(PPM);RU(PPB);RH(PPB);PD(PPB);IN(PPM);SN(PPM);SB(PPM);XE132(CCMSTP/G);CS(PPM);BA(PPM): altern. values or methods;;;;LA(PPM): altern. values or methods;;;;CE(PPM): altern. values or methods;;;;PR(PPM): altern. values or methods;;;;ND(PPM): altern. values or methods;;;;SM(PPM): altern. values or methods;;;;EU(PPM): altern. values or methods;;;;GD(PPM);TB(PPM): altern. values or methods;;;;DY(PPM);HO(PPM);ER(PPM);TM(PPM);YB(PPM): altern. values or methods;;;;LU(PPM);HF(PPM): altern. values or methods;;;;TA(PPM);W(PPM);RE(PPB): altern. values or methods;;;;RE(PPT);OS(PPB): altern. values or methods;;;;OS(PPT);IR(PPB);PT(PPB);AU(PPB);HG(PPB);TL(PPM);PB(PPM): altern. values or methods;;;;PB210_ACT(DPM/G);TH(PPM): altern. values or methods;;;;TH(PPB);U(PPM): altern. values or methods;;;;U(PPB);CO2(PPM);H2O(PPM);ND143_ND144;ND148_ND144;SM147_ND144;SR87_SR86;RB87_SR86;PB206_PB204: altern. values or methods;;;;PB206_PB207;PB206_PB208;PB207_PB204: altern. values or methods;;;;PB207_PB206;PB208_PB204: altern. values or methods;;;;PB208_PB206;OS187_OS186;OS187_OS188: altern. values or methods;;;;RE187_OS188: altern. values or methods;;;;HF176_HF177;HE3_HE4;HE3_HE4(R/R(A)): altern. values or methods;;;;HE4_HE3: altern. values or methods;;;;;;HE4_HE3(R/R(A)): altern. values or methods;;;;AR38_AR36;AR40_AR36;NE20_NE22;NE21_NE22;XE129_XE132;PB206_U238;PB207_U235;PB210_U238;TH232_U238;U238_PB204;D13C(VS SMOW);D17O(VS VSMOW);D18O(PER MIL);D18O(VS PDB);D18O(VS SMOW);D18O(VS VSMOW);D34S(VS CDT);D44_40CA(VS SRM915A);D56FE(VS IRMM-014);DD(VS SMOW);ALBITE(MOL%);ACMITE(MOL%);ANORTHITE(MOL%);ENSTATITE(MOL%);FAYALITE(MOL%);FORSTERITE(MOL%);FERROSILITE(MOL%);HEMATITE(MOL%);LARNITE(MOL%);ORTHOCLASE(MOL%);PSEUDOBROOKITE(MOL%);TEPHROITE(MOL%);ULVOSPINEL(MOL%);WOLLASTONITE(MOL%);AGE(KA);AGE(MA): altern. values or methods;;;;;;;;AGE_PB207_PB206(MA);AGE_PB207_U235(MA);AGE_PB206_U238(MA);
2008;[12562] ZHANG ZHAOCHONG(2008)  [GeoReM [4204] ];samp. LS03-6;;CENTRAL ASIAN FOLDBELT - PALEOZOIC / CHINA - PALEOZOIC / XINJIANG PROVINCE / BEITASHAN FORMATION;LAOSHANKOU SECTION, NORTHERN JUNGGAR TERRANE;46.3;90;46.3;90;;;OUTCROP;;;SUBAERIAL;VOLCANIC ROCK;ANKARAMITE;HIGHLY POPRHYRITIC, GRANULAR GROUNDMASS;;;;DEVONIAN;;;;GREENSCHIST-FACIES METAMORPHISM;MINERAL / COMPONENT (INCL. GROUNDMASS);CLINOPYROXENE;34-CPX2;;;;PRIMARY;;;;;;;;53.48;0.2;2.22;0.87;;;;;4.56;;22;16.93;0.1;;;;;;;;;;0.15;EMP (EPMA);;;;;;;;;;;;;;;;;;;;;;;;;;;;;;;;;;;;;;;;;;;;;;;;;;;;;;;;;;;;;;;;;;;;;;;;;;;;;;;;;;;;;;;;;;;;;;;;;;;;;;;;;;;;;;;;;;;;;;;;;;;;;;;;;;;;;;;;;;;;;;;;;;;;;;;;;;;;;;;;;;;;;;;;;;;;;;;;;;;;;;;;;;;;;;;;;;;;;;;;;;;;;;;;;;;;;;;;;;;;;;;;;;;;;;;;;;;;;;;;;;;;;;;;;;;;;;;;;;;;;;;;;;;;;;;;;;47.96;;;7.25;;;;;;;44.79;;;;;;;;;;;;;
2008;[12562] ZHANG ZHAOCHONG(2008)  [GeoReM [4204] ];samp. LS03-6;;CENTRAL ASIAN FOLDBELT - PALEOZOIC / CHINA - PALEOZOIC / XINJIANG PROVINCE / BEITASHAN FORMATION;LAOSHANKOU SECTION, NORTHERN JUNGGAR TERRANE;46.3;90;46.3;90;;;OUTCROP;;;SUBAERIAL;VOLCANIC ROCK;ANKARAMITE;HIGHLY POPRHYRITIC, GRANULAR GROUNDMASS;;;;DEVONIAN;;;;GREENSCHIST-FACIES METAMORPHISM;MINERAL / COMPONENT (INCL. GROUNDMASS);CLINOPYROXENE;34-CPX3;;;;PRIMARY;;;;;;;;53.77;0.11;1.1;0.54;;;;;2.48;;22.81;17.89;0.08;;;;;;;;;;0.11;EMP (EPMA);;;;;;;;;;;;;;;;;;;;;;;;;;;;;;;;;;;;;;;;;;;;;;;;;;;;;;;;;;;;;;;;;;;;;;;;;;;;;;;;;;;;;;;;;;;;;;;;;;;;;;;;;;;;;;;;;;;;;;;;;;;;;;;;;;;;;;;;;;;;;;;;;;;;;;;;;;;;;;;;;;;;;;;;;;;;;;;;;;;;;;;;;;;;;;;;;;;;;;;;;;;;;;;;;;;;;;;;;;;;;;;;;;;;;;;;;;;;;;;;;;;;;;;;;;;;;;;;;;;;;;;;;;;;;;;;;;50.15;;;3.9;;;;;;;45.95;;;;;;;;;;;;;
2008;[12562] ZHANG ZHAOCHONG(2008)  [GeoReM [4204] ];samp. LS03-6;;CENTRAL ASIAN FOLDBELT - PALEOZOIC / CHINA - PALEOZOIC / XINJIANG PROVINCE / BEITASHAN FORMATION;LAOSHANKOU SECTION, NORTHERN JUNGGAR TERRANE;46.3;90;46.3;90;;;OUTCROP;;;SUBAERIAL;VOLCANIC ROCK;ANKARAMITE;HIGHLY POPRHYRITIC, GRANULAR GROUNDMASS;;;;DEVONIAN;;;;GREENSCHIST-FACIES METAMORPHISM;MINERAL / COMPONENT (INCL. GROUNDMASS);CLINOPYROXENE;34-CPX4;;;;PRIMARY;;;;;;;;51.66;0.25;2.97;0.74;;;;;5.23;;21.84;16.28;0.13;;;;;;;;;;0.16;EMP (EPMA);;;;;;;;;;;;;;;;;;;;;;;;;;;;;;;;;;;;;;;;;;;;;;;;;;;;;;;;;;;;;;;;;;;;;;;;;;;;;;;;;;;;;;;;;;;;;;;;;;;;;;;;;;;;;;;;;;;;;;;;;;;;;;;;;;;;;;;;;;;;;;;;;;;;;;;;;;;;;;;;;;;;;;;;;;;;;;;;;;;;;;;;;;;;;;;;;;;;;;;;;;;;;;;;;;;;;;;;;;;;;;;;;;;;;;;;;;;;;;;;;;;;;;;;;;;;;;;;;;;;;;;;;;;;;;;;;;46.64;;;8.4;;;;;;;44.96;;;;;;;;;;;;;
2008;[12562] ZHANG ZHAOCHONG(2008)  [GeoReM [4204] ];samp. XJ23-17;237827;CENTRAL ASIAN FOLDBELT - PALEOZOIC / CHINA - PALEOZOIC / XINJIANG PROVINCE / BEITASHAN FORMATION;EASTERN JUNGGAR TERRANE;46;90;47;92;;;OUTCROP;;;SUBAERIAL;VOLCANIC ROCK;ANKARAMITE;HIGHLY POPRHYRITIC, GRANULAR GROUNDMASS;;;;DEVONIAN;;;;GREENSCHIST-FACIES METAMORPHISM;MINERAL / COMPONENT (INCL. GROUNDMASS);CLINOPYROXENE;1;;;;PRIMARY;;;;;;;;51.69;0.27;2.26;0.86;;;;;2.96;;22.27;16.72;0.17;;;;;;;;;;0.26;EMP (EPMA);;;;;;;;;;;;;;;;;;;;;;;;;;;;;;;;;;;;;;;;;;;;;;;;;;;;;;;;;;;;;;;;;;;;;;;;;;;;;;;;;;;;;;;;;;;;;;;;;;;;;;;;;;;;;;;;;;;;;;;;;;;;;;;;;;;;;;;;;;;;;;;;;;;;;;;;;;;;;;;;;;;;;;;;;;;;;;;;;;;;;;;;;;;;;;;;;;;;;;;;;;;;;;;;;;;;;;;;;;;;;;;;;;;;;;;;;;;;;;;;;;;;;;;;;;;;;;;;;;;;;;;;;;;;;;;;;;49.01;;;4.06;;;;;;;46.93;;;;;;;;;;;;;
2008;[12562] ZHANG ZHAOCHONG(2008)  [GeoReM [4204] ];samp. XJ23-17;237827;CENTRAL ASIAN FOLDBELT - PALEOZOIC / CHINA - PALEOZOIC / XINJIANG PROVINCE / BEITASHAN FORMATION;EASTERN JUNGGAR TERRANE;46;90;47;92;;;OUTCROP;;;SUBAERIAL;VOLCANIC ROCK;ANKARAMITE;HIGHLY POPRHYRITIC, GRANULAR GROUNDMASS;;;;DEVONIAN;;;;GREENSCHIST-FACIES METAMORPHISM;MINERAL / COMPONENT (INCL. GROUNDMASS);CLINOPYROXENE;2;;;;PRIMARY;;;;;;;;50.38;0.32;3.21;0.55;;;;;2.3;;22.34;15.87;0.23;;;;;;;;;;0.23;EMP (EPMA);;;;;;;;;;;;;;;;;;;;;;;;;;;;;;;;;;;;;;;;;;;;;;;;;;;;;;;;;;;;;;;;;;;;;;;;;;;;;;;;;;;;;;;;;;;;;;;;;;;;;;;;;;;;;;;;;;;;;;;;;;;;;;;;;;;;;;;;;;;;;;;;;;;;;;;;;;;;;;;;;;;;;;;;;;;;;;;;;;;;;;;;;;;;;;;;;;;;;;;;;;;;;;;;;;;;;;;;;;;;;;;;;;;;;;;;;;;;;;;;;;;;;;;;;;;;;;;;;;;;;;;;;;;;;;;;;;47.59;;;4.26;;;;;;;48.15;;;;;;;;;;;;;
2008;[12562] ZHANG ZHAOCHONG(2008)  [GeoReM [4204] ];samp. XJ23-17;237827;CENTRAL ASIAN FOLDBELT - PALEOZOIC / CHINA - PALEOZOIC / XINJIANG PROVINCE / BEITASHAN FORMATION;EASTERN JUNGGAR TERRANE;46;90;47;92;;;OUTCROP;;;SUBAERIAL;VOLCANIC ROCK;ANKARAMITE;HIGHLY POPRHYRITIC, GRANULAR GROUNDMASS;;;;DEVONIAN;;;;GREENSCHIST-FACIES METAMORPHISM;MINERAL / COMPONENT (INCL. GROUNDMASS);CLINOPYROXENE;32;;;;PRIMARY;;;;;;;;51.19;0.29;3;0.91;;;;;2.81;;22.71;16.18;0.15;;;;;;;;;;0.2;EMP (EPMA);;;;;;;;;;;;;;;;;;;;;;;;;;;;;;;;;;;;;;;;;;;;;;;;;;;;;;;;;;;;;;;;;;;;;;;;;;;;;;;;;;;;;;;;;;;;;;;;;;;;;;;;;;;;;;;;;;;;;;;;;;;;;;;;;;;;;;;;;;;;;;;;;;;;;;;;;;;;;;;;;;;;;;;;;;;;;;;;;;;;;;;;;;;;;;;;;;;;;;;;;;;;;;;;;;;;;;;;;;;;;;;;;;;;;;;;;;;;;;;;;;;;;;;;;;;;;;;;;;;;;;;;;;;;;;;;;;47.65;;;4.29;;;;;;;48.06;;;;;;;;;;;;;
2008;[12562] ZHANG ZHAOCHONG(2008)  [GeoReM [4204] ];samp. XJ20-6;237800;CENTRAL ASIAN FOLDBELT - PALEOZOIC / CHINA - PALEOZOIC / XINJIANG PROVINCE / BEITASHAN FORMATION;EASTERN JUNGGAR TERRANE;46;90;47;92;;;OUTCROP;;;SUBAERIAL;VOLCANIC ROCK;ANKARAMITE;HIGHLY POPRHYRITIC, GRANULAR GROUNDMASS;;;;DEVONIAN;;;;GREENSCHIST-FACIES METAMORPHISM;MINERAL / COMPONENT (INCL. GROUNDMASS);CLINOPYROXENE;17;;;;PRIMARY;;;;;;;;51.19;0.13;1.47;0.66;;;;;4.26;;23.3;16.85;0.11;;;;;;;;;;0.13;EMP (EPMA);;;;;;;;;;;;;;;;;;;;;;;;;;;;;;;;;;;;;;;;;;;;;;;;;;;;;;;;;;;;;;;;;;;;;;;;;;;;;;;;;;;;;;;;;;;;;;;;;;;;;;;;;;;;;;;;;;;;;;;;;;;;;;;;;;;;;;;;;;;;;;;;;;;;;;;;;;;;;;;;;;;;;;;;;;;;;;;;;;;;;;;;;;;;;;;;;;;;;;;;;;;;;;;;;;;;;;;;;;;;;;;;;;;;;;;;;;;;;;;;;;;;;;;;;;;;;;;;;;;;;;;;;;;;;;;;;;49.52;;;1.25;;;;;;;49.23;;;;;;;;;;;;;
2008;[12562] ZHANG ZHAOCHONG(2008)  [GeoReM [4204] ];samp. XJ20-6;237800;CENTRAL ASIAN FOLDBELT - PALEOZOIC / CHINA - PALEOZOIC / XINJIANG PROVINCE / BEITASHAN FORMATION;EASTERN JUNGGAR TERRANE;46;90;47;92;;;OUTCROP;;;SUBAERIAL;VOLCANIC ROCK;ANKARAMITE;HIGHLY POPRHYRITIC, GRANULAR GROUNDMASS;;;;DEVONIAN;;;;GREENSCHIST-FACIES METAMORPHISM;MINERAL / COMPONENT (INCL. GROUNDMASS);CLINOPYROXENE;18;;;;PRIMARY;;;;;;;;49.93;0.28;3.12;0.74;;;;;4.31;;22.39;15.89;0.17;;;;;;;;;;0.23;EMP (EPMA);;;;;;;;;;;;;;;;;;;;;;;;;;;;;;;;;;;;;;;;;;;;;;;;;;;;;;;;;;;;;;;;;;;;;;;;;;;;;;;;;;;;;;;;;;;;;;;;;;;;;;;;;;;;;;;;;;;;;;;;;;;;;;;;;;;;;;;;;;;;;;;;;;;;;;;;;;;;;;;;;;;;;;;;;;;;;;;;;;;;;;;;;;;;;;;;;;;;;;;;;;;;;;;;;;;;;;;;;;;;;;;;;;;;;;;;;;;;;;;;;;;;;;;;;;;;;;;;;;;;;;;;;;;;;;;;;;48.14;;;3.09;;;;;;;48.78;;;;;;;;;;;;;
2008;[12562] ZHANG ZHAOCHONG(2008)  [GeoReM [4204] ];samp. XJ20-6;237800;CENTRAL ASIAN FOLDBELT - PALEOZOIC / CHINA - PALEOZOIC / XINJIANG PROVINCE / BEITASHAN FORMATION;EASTERN JUNGGAR TERRANE;46;90;47;92;;;OUTCROP;;;SUBAERIAL;VOLCANIC ROCK;ANKARAMITE;HIGHLY POPRHYRITIC, GRANULAR GROUNDMASS;;;;DEVONIAN;;;;GREENSCHIST-FACIES METAMORPHISM;MINERAL / COMPONENT (INCL. GROUNDMASS);CLINOPYROXENE;19;;;;PRIMARY;;;;;;;;51.57;0.16;1.61;0.74;;;;;3.73;;22.99;17.16;0.12;;;;;;;;;;0.15;EMP (EPMA);;;;;;;;;;;;;;;;;;;;;;;;;;;;;;;;;;;;;;;;;;;;;;;;;;;;;;;;;;;;;;;;;;;;;;;;;;;;;;;;;;;;;;;;;;;;;;;;;;;;;;;;;;;;;;;;;;;;;;;;;;;;;;;;;;;;;;;;;;;;;;;;;;;;;;;;;;;;;;;;;;;;;;;;;;;;;;;;;;;;;;;;;;;;;;;;;;;;;;;;;;;;;;;;;;;;;;;;;;;;;;;;;;;;;;;;;;;;;;;;;;;;;;;;;;;;;;;;;;;;;;;;;;;;;;;;;;50.11;;;1.64;;;;;;;48.26;;;;;;;;;;;;;
2008;[12562] ZHANG ZHAOCHONG(2008)  [GeoReM [4204] ];samp. XJ23-17;237827;CENTRAL ASIAN FOLDBELT - PALEOZOIC / CHINA - PALEOZOIC / XINJIANG PROVINCE / BEITASHAN FORMATION;EASTERN JUNGGAR TERRANE;46;90;47;92;;;OUTCROP;;;SUBAERIAL;VOLCANIC ROCK;ANKARAMITE;HIGHLY POPRHYRITIC, GRANULAR GROUNDMASS;;;;DEVONIAN;;;;GREENSCHIST-FACIES METAMORPHISM;MINERAL / COMPONENT (INCL. GROUNDMASS);SPINEL;3;;;;PRIMARY;;;;;;;;0.01;0.27;6.14;56.24;;;;8.6;;19.71;0;8.25;0.42;;;0.04;;;;;;;;;;;;;;;;;;;;;;;;;;;;;;;;;;;;;;;;;;;;;;;;;;;;;;;;;;;;;;;;;;;;;;;;;;;;;;;;;;;;;;;;;;;;;;;;;;;;;;;;;;;;;;;;;;;;;;;;;;;;;;;;;;;;;;;;;;;;;;;;;;;;;;;;;;;;;;;;;;;;;;;;;;;;;;;;;;;;;;;;;;;;;;;;;;;;;;;;;;;;;;;;;;;;;;;;;;;;;;;;;;;;;;;;;;;;;;;;;;;;;;;;;;;;;;;;;;;;;;;;;;;;;;;;;;;;;;;;;;;;;;;;;;;;;;;;;;;;;;;;;
2008;[12562] ZHANG ZHAOCHONG(2008)  [GeoReM [4204] ];samp. XJ23-17;237827;CENTRAL ASIAN FOLDBELT - PALEOZOIC / CHINA - PALEOZOIC / XINJIANG PROVINCE / BEITASHAN FORMATION;EASTERN JUNGGAR TERRANE;46;90;47;92;;;OUTCROP;;;SUBAERIAL;VOLCANIC ROCK;ANKARAMITE;HIGHLY POPRHYRITIC, GRANULAR GROUNDMASS;;;;DEVONIAN;;;;GREENSCHIST-FACIES METAMORPHISM;MINERAL / COMPONENT (INCL. GROUNDMASS);SPINEL;4;;;;PRIMARY;;;;;;;;0;0.46;8.88;50.48;;;;10.87;;18.96;0;8.84;0.39;;;0.08;;;;;;;;;;;;;;;;;;;;;;;;;;;;;;;;;;;;;;;;;;;;;;;;;;;;;;;;;;;;;;;;;;;;;;;;;;;;;;;;;;;;;;;;;;;;;;;;;;;;;;;;;;;;;;;;;;;;;;;;;;;;;;;;;;;;;;;;;;;;;;;;;;;;;;;;;;;;;;;;;;;;;;;;;;;;;;;;;;;;;;;;;;;;;;;;;;;;;;;;;;;;;;;;;;;;;;;;;;;;;;;;;;;;;;;;;;;;;;;;;;;;;;;;;;;;;;;;;;;;;;;;;;;;;;;;;;;;;;;;;;;;;;;;;;;;;;;;;;;;;;;;;
2008;[12562] ZHANG ZHAOCHONG(2008)  [GeoReM [4204] ];samp. XJ23-17;237827;CENTRAL ASIAN FOLDBELT - PALEOZOIC / CHINA - PALEOZOIC / XINJIANG PROVINCE / BEITASHAN FORMATION;EASTERN JUNGGAR TERRANE;46;90;47;92;;;OUTCROP;;;SUBAERIAL;VOLCANIC ROCK;ANKARAMITE;HIGHLY POPRHYRITIC, GRANULAR GROUNDMASS;;;;DEVONIAN;;;;GREENSCHIST-FACIES METAMORPHISM;MINERAL / COMPONENT (INCL. GROUNDMASS);SPINEL;5;;;;PRIMARY;;;;;;;;0.04;0.2;6.36;60.19;;;;4.75;;17.53;0;9.6;0.39;;;0.08;;;;;;;;;;;;;;;;;;;;;;;;;;;;;;;;;;;;;;;;;;;;;;;;;;;;;;;;;;;;;;;;;;;;;;;;;;;;;;;;;;;;;;;;;;;;;;;;;;;;;;;;;;;;;;;;;;;;;;;;;;;;;;;;;;;;;;;;;;;;;;;;;;;;;;;;;;;;;;;;;;;;;;;;;;;;;;;;;;;;;;;;;;;;;;;;;;;;;;;;;;;;;;;;;;;;;;;;;;;;;;;;;;;;;;;;;;;;;;;;;;;;;;;;;;;;;;;;;;;;;;;;;;;;;;;;;;;;;;;;;;;;;;;;;;;;;;;;;;;;;;;;;
2008;[12562] ZHANG ZHAOCHONG(2008)  [GeoReM [4204] ];samp. XJ23-17;237827;CENTRAL ASIAN FOLDBELT - PALEOZOIC / CHINA - PALEOZOIC / XINJIANG PROVINCE / BEITASHAN FORMATION;EASTERN JUNGGAR TERRANE;46;90;47;92;;;OUTCROP;;;SUBAERIAL;VOLCANIC ROCK;ANKARAMITE;HIGHLY POPRHYRITIC, GRANULAR GROUNDMASS;;;;DEVONIAN;;;;GREENSCHIST-FACIES METAMORPHISM;MINERAL / COMPONENT (INCL. GROUNDMASS);SPINEL;6;;;;PRIMARY;;;;;;;;0.01;0.3;5.81;55.68;;;;9.63;;18.28;0;9.03;0.42;;;0.05;;;;;;;;;;;;;;;;;;;;;;;;;;;;;;;;;;;;;;;;;;;;;;;;;;;;;;;;;;;;;;;;;;;;;;;;;;;;;;;;;;;;;;;;;;;;;;;;;;;;;;;;;;;;;;;;;;;;;;;;;;;;;;;;;;;;;;;;;;;;;;;;;;;;;;;;;;;;;;;;;;;;;;;;;;;;;;;;;;;;;;;;;;;;;;;;;;;;;;;;;;;;;;;;;;;;;;;;;;;;;;;;;;;;;;;;;;;;;;;;;;;;;;;;;;;;;;;;;;;;;;;;;;;;;;;;;;;;;;;;;;;;;;;;;;;;;;;;;;;;;;;;;
2008;[12562] ZHANG ZHAOCHONG(2008)  [GeoReM [4204] ];samp. XJ23-17-3;;CENTRAL ASIAN FOLDBELT - PALEOZOIC / CHINA - PALEOZOIC / XINJIANG PROVINCE / BEITASHAN FORMATION;LAOSHANKOU SECTION, NORTHERN JUNGGAR TERRANE;46.3;90;46.3;90;;;OUTCROP;;;SUBAERIAL;VOLCANIC ROCK;ANKARAMITE;HIGHLY POPRHYRITIC, GRANULAR GROUNDMASS;;;;DEVONIAN;;;;GREENSCHIST-FACIES METAMORPHISM;MINERAL / COMPONENT (INCL. GROUNDMASS);SPINEL;31;;;;PRIMARY;;;;;;;;0.1;1.06;12.36;34.86;;;;20.39;;21.39;0.34;6.3;1.66;;;0.16;;;;;;;;;;;;;;;;;;;;;;;;;;;;;;;;;;;;;;;;;;;;;;;;;;;;;;;;;;;;;;;;;;;;;;;;;;;;;;;;;;;;;;;;;;;;;;;;;;;;;;;;;;;;;;;;;;;;;;;;;;;;;;;;;;;;;;;;;;;;;;;;;;;;;;;;;;;;;;;;;;;;;;;;;;;;;;;;;;;;;;;;;;;;;;;;;;;;;;;;;;;;;;;;;;;;;;;;;;;;;;;;;;;;;;;;;;;;;;;;;;;;;;;;;;;;;;;;;;;;;;;;;;;;;;;;;;;;;;;;;;;;;;;;;;;;;;;;;;;;;;;;;
2008;[12562] ZHANG ZHAOCHONG(2008)  [GeoReM [4204] ];samp. XJ23-14;237802;CENTRAL ASIAN FOLDBELT - PALEOZOIC / CHINA - PALEOZOIC / XINJIANG PROVINCE / BEITASHAN FORMATION;EASTERN JUNGGAR TERRANE;46;90;47;92;;;OUTCROP;;;SUBAERIAL;VOLCANIC ROCK;ANKARAMITE;HIGHLY POPRHYRITIC, GRANULAR GROUNDMASS;;;;DEVONIAN;;;;GREENSCHIST-FACIES METAMORPHISM;MINERAL / COMPONENT (INCL. GROUNDMASS);SPINEL;20;;;;PRIMARY;;;;;;;;0.15;0.9;10.44;36.66;;;;20.93;;22.08;0.47;5.62;1.61;;;0.14;;;;;;;;;;;;;;;;;;;;;;;;;;;;;;;;;;;;;;;;;;;;;;;;;;;;;;;;;;;;;;;;;;;;;;;;;;;;;;;;;;;;;;;;;;;;;;;;;;;;;;;;;;;;;;;;;;;;;;;;;;;;;;;;;;;;;;;;;;;;;;;;;;;;;;;;;;;;;;;;;;;;;;;;;;;;;;;;;;;;;;;;;;;;;;;;;;;;;;;;;;;;;;;;;;;;;;;;;;;;;;;;;;;;;;;;;;;;;;;;;;;;;;;;;;;;;;;;;;;;;;;;;;;;;;;;;;;;;;;;;;;;;;;;;;;;;;;;;;;;;;;;;
2008;[12562] ZHANG ZHAOCHONG(2008)  [GeoReM [4204] ];samp. XJ23-14-2;;CENTRAL ASIAN FOLDBELT - PALEOZOIC / CHINA - PALEOZOIC / XINJIANG PROVINCE / BEITASHAN FORMATION;LAOSHANKOU SECTION, NORTHERN JUNGGAR TERRANE;46.3;90;46.3;90;;;OUTCROP;;;SUBAERIAL;VOLCANIC ROCK;ANKARAMITE;HIGHLY POPRHYRITIC, GRANULAR GROUNDMASS;;;;DEVONIAN;;;;GREENSCHIST-FACIES METAMORPHISM;MINERAL / COMPONENT (INCL. GROUNDMASS);SPINEL;34;;;;PRIMARY;;;;;;;;0.24;1.08;14.35;27.17;;;;22.74;;26.25;0.61;2.34;2.31;;;0.11;;;;;;;;;;;;;;;;;;;;;;;;;;;;;;;;;;;;;;;;;;;;;;;;;;;;;;;;;;;;;;;;;;;;;;;;;;;;;;;;;;;;;;;;;;;;;;;;;;;;;;;;;;;;;;;;;;;;;;;;;;;;;;;;;;;;;;;;;;;;;;;;;;;;;;;;;;;;;;;;;;;;;;;;;;;;;;;;;;;;;;;;;;;;;;;;;;;;;;;;;;;;;;;;;;;;;;;;;;;;;;;;;;;;;;;;;;;;;;;;;;;;;;;;;;;;;;;;;;;;;;;;;;;;;;;;;;;;;;;;;;;;;;;;;;;;;;;;;;;;;;;;;
2008;[12562] ZHANG ZHAOCHONG(2008)  [GeoReM [4204] ];samp. LS03-6;;CENTRAL ASIAN FOLDBELT - PALEOZOIC / CHINA - PALEOZOIC / XINJIANG PROVINCE / BEITASHAN FORMATION;LAOSHANKOU SECTION, NORTHERN JUNGGAR TERRANE;46.3;90;46.3;90;;;OUTCROP;;;SUBAERIAL;VOLCANIC ROCK;ANKARAMITE;HIGHLY POPRHYRITIC, GRANULAR GROUNDMASS;;;;DEVONIAN;;;;GREENSCHIST-FACIES METAMORPHISM;MINERAL / COMPONENT (INCL. GROUNDMASS);SPINEL;CSP;;;;PRIMARY;;;;;;;;0.03;0.83;11.46;41.65;;;;14.11;;20.27;0;10.37;0.29;;;0;;;;;;;;;;;;;;;;;;;;;;;;;;;;;;;;;;;;;;;;;;;;;;;;;;;;;;;;;;;;;;;;;;;;;;;;;;;;;;;;;;;;;;;;;;;;;;;;;;;;;;;;;;;;;;;;;;;;;;;;;;;;;;;;;;;;;;;;;;;;;;;;;;;;;;;;;;;;;;;;;;;;;;;;;;;;;;;;;;;;;;;;;;;;;;;;;;;;;;;;;;;;;;;;;;;;;;;;;;;;;;;;;;;;;;;;;;;;;;;;;;;;;;;;;;;;;;;;;;;;;;;;;;;;;;;;;;;;;;;;;;;;;;;;;;;;;;;;;;;;;;;;;
1975;[12651] LIETZ J. (1975);samp. P4;;CANARY ISLANDS / GRAN CANARIA;EAST SIDE OF ^LOMO GRANDE^ ABOVE ROAD TENOYA - CARDONES;28;-15.6;28;-15.6;170;170;OUTCROP;;;SUBAERIAL;VOLCANIC ROCK;ANKARAMITE;;;;;PLIOCENE;;;;;WHOLE ROCK;;;;;;;;;;;;;;;;;;;;;;;;;;;;;;;;1.24;AAS;;;;;;;;;;;;;;;;;;;;;;;;;;;;;;;;;;;;;;;;;;;;;;;;;;;;;;;;;;;;;;;;;;;;;;;;;;;;;;;;;;;;;;;;;;;;;;;;;;;;;;;;;;;;;;;;;;;;;;;;;;;;;;;;;;;;;;;;;;;;;;;;;;;;;;;;;;;;;;;;;;;;;;;;;;;;;;;;;;;;;;;;;;;;;;;;;;;;;;;;;;;;;;;;;;;;;;;;;;;;;;;;;;;;;;;;;;;;;;;;;;;;;;;;;;;;;;;;;;;;;;;;;;;;;;;;;;;;;;;;;;;;;;;;;;3.77;K-AR;;;;;;;;;;
1975;[12651] LIETZ J. (1975);samp. P4;;CANARY ISLANDS / GRAN CANARIA;EAST SIDE OF ^LOMO GRANDE^ ABOVE ROAD TENOYA - CARDONES;28;-15.6;28;-15.6;170;170;OUTCROP;;;SUBAERIAL;VOLCANIC ROCK;ANKARAMITE;;;;;PLIOCENE;;;;;WHOLE ROCK;;;;;;;;;;;;;;;;;;;;;;;;;;;;;;;;1.23;AAS;;;;;;;;;;;;;;;;;;;;;;;;;;;;;;;;;;;;;;;;;;;;;;;;;;;;;;;;;;;;;;;;;;;;;;;;;;;;;;;;;;;;;;;;;;;;;;;;;;;;;;;;;;;;;;;;;;;;;;;;;;;;;;;;;;;;;;;;;;;;;;;;;;;;;;;;;;;;;;;;;;;;;;;;;;;;;;;;;;;;;;;;;;;;;;;;;;;;;;;;;;;;;;;;;;;;;;;;;;;;;;;;;;;;;;;;;;;;;;;;;;;;;;;;;;;;;;;;;;;;;;;;;;;;;;;;;;;;;;;;;;;;;;;;;;;;;;;;;;;;;
1975;[12651] LIETZ J. (1975);samp. P18;;CANARY ISLANDS / GRAN CANARIA;SOUTHERN PART OF LAS PALMAS, NORTH SIDE BARRANCO DEL NEGRO, ABOVE LA LAJA;28;-15.6;28;-15.6;90;90;OUTCROP;;;SUBAERIAL;VOLCANIC ROCK;ANKARAMITE;;;;;PLIOCENE;;;;;WHOLE ROCK;;;;;;;;;;;;;;;;;;;;;;;;;;;;;;;;1.48;AAS;;;;;;;;;;;;;;;;;;;;;;;;;;;;;;;;;;;;;;;;;;;;;;;;;;;;;;;;;;;;;;;;;;;;;;;;;;;;;;;;;;;;;;;;;;;;;;;;;;;;;;;;;;;;;;;;;;;;;;;;;;;;;;;;;;;;;;;;;;;;;;;;;;;;;;;;;;;;;;;;;;;;;;;;;;;;;;;;;;;;;;;;;;;;;;;;;;;;;;;;;;;;;;;;;;;;;;;;;;;;;;;;;;;;;;;;;;;;;;;;;;;;;;;;;;;;;;;;;;;;;;;;;;;;;;;;;;;;;;;;;;;;;;;;;;3.77;K-AR;;;;;;;;;;
1975;[12651] LIETZ J. (1975);samp. P18;;CANARY ISLANDS / GRAN CANARIA;SOUTHERN PART OF LAS PALMAS, NORTH SIDE BARRANCO DEL NEGRO, ABOVE LA LAJA;28;-15.6;28;-15.6;90;90;OUTCROP;;;SUBAERIAL;VOLCANIC ROCK;ANKARAMITE;;;;;PLIOCENE;;;;;WHOLE ROCK;;;;;;;;;;;;;;;;;;;;;;;;;;;;;;;;1.47;AAS;;;;;;;;;;;;;;;;;;;;;;;;;;;;;;;;;;;;;;;;;;;;;;;;;;;;;;;;;;;;;;;;;;;;;;;;;;;;;;;;;;;;;;;;;;;;;;;;;;;;;;;;;;;;;;;;;;;;;;;;;;;;;;;;;;;;;;;;;;;;;;;;;;;;;;;;;;;;;;;;;;;;;;;;;;;;;;;;;;;;;;;;;;;;;;;;;;;;;;;;;;;;;;;;;;;;;;;;;;;;;;;;;;;;;;;;;;;;;;;;;;;;;;;;;;;;;;;;;;;;;;;;;;;;;;;;;;;;;;;;;;;;;;;;;;;;;;;;;;;;;