Year;CITATION;SAMPLE NAME;UNIQUE_ID;LOCATION;LOCATION COMMENT;LATITUDE (MIN.);LONGITUDE (MIN.);LATITUDE (MAX.);LONGITUDE (MAX.);ELEVATION (MIN.);ELEVATION (MAX.);SAMPLING TECHNIQUE;DRILLING DEPTH (MIN.);DRILLING DEPTH (MAX.);LAND/SEA (SAMPLING);ROCK TYPE;ROCK NAME;ROCK TEXTURE;SAMPLE COMMENT;AGE (MIN.);AGE (MAX.);GEOLOGICAL AGE;GEOLOGICAL AGE PREFIX;ERUPTION YEAR;ALTERATION;ALTERATION TYPE;TYPE OF MATERIAL;MINERAL / COMPONENT;SPOT (MINERAL);CRYSTAL;RIM / CORE (MINERAL GRAINS);GRAIN SIZE;PRIMARY/SECONDARY;INCLUSION TYPE;SPOT (INCLUSION);MINERAL (INCLUSION);RIM / CORE (INCLUSION);HOSTMINERAL (INCLUSION);HEATING;HEATING TEMPERATURE (?C);SIO2(WT%);TIO2(WT%);AL2O3(WT%);CR2O3(WT%);V2O3(WT%);V2O5(WT%);FE2O3T(WT%);FE2O3(WT%);FEOT(WT%);FEO(WT%);CAO(WT%);MGO(WT%);MNO(WT%);BAO(WT%);SRO(WT%);NIO(WT%);ZNO(WT%);COO(WT%);K2O(WT%);;;;NA2O(WT%);;;;P2O5(WT%);H2O(WT%);H2OP(WT%);H2OM(WT%);CO2(WT%);F(WT%);CL(WT%);CL2(WT%);SO3(WT%);S(WT%);LOI(WT%);O(WT%);SI(WT%);AL(WT%);TI(WT%);FE(WT%);MG(WT%);MN(WT%);CA(WT%);K(WT%): altern. values or methods;;;;NA(WT%);CR(WT%);NI(WT%);HE(CCMSTP/G);HE3(CCMSTP/G);HE4(CCMSTP/G): altern. values or methods;;;;LI(PPM);BE(PPM);B(PPM);F(PPM);NE20(CCMSTP/G);NE22(CCMSTP/G);P(PPM);S(PPM);CL(PPM);AR36(CCMSTP/G);AR40(CCMSTP/G);AR40(MOL/G): altern. values or methods;;;;AR40(PPB);K(PPM);SC(PPM): altern. values or methods;;;;;;TI(PPM);V(PPM): altern. values or methods;;;;CR(PPM): altern. values or methods;;;;MN(PPM);FE(PPM);CO(PPM): altern. values or methods;;;;;;NI(PPM): altern. values or methods;;;;;;CU(PPM): altern. values or methods;;;;ZN(PPM): altern. values or methods;;;;GA(PPM): altern. values or methods;;;;GE(PPM);AS(PPM);KR84(CCMSTP/G);RB(PPM): altern. values or methods;;;;SR(PPM): altern. values or methods;;;;Y(PPM): altern. values or methods;;;;ZR(PPM): altern. values or methods;;;;NB(PPM): altern. values or methods;;;;MO(PPM);RU(PPB);RH(PPB);PD(PPB);IN(PPM);SN(PPM);SB(PPM);XE132(CCMSTP/G);CS(PPM);BA(PPM): altern. values or methods;;;;LA(PPM): altern. values or methods;;;;CE(PPM): altern. values or methods;;;;PR(PPM): altern. values or methods;;;;ND(PPM): altern. values or methods;;;;SM(PPM): altern. values or methods;;;;EU(PPM): altern. values or methods;;;;GD(PPM);TB(PPM): altern. values or methods;;;;DY(PPM);HO(PPM);ER(PPM);TM(PPM);YB(PPM): altern. values or methods;;;;LU(PPM);HF(PPM): altern. values or methods;;;;TA(PPM);W(PPM);RE(PPB): altern. values or methods;;;;RE(PPT);OS(PPB): altern. values or methods;;;;OS(PPT);IR(PPB);PT(PPB);AU(PPB);HG(PPB);TL(PPM);PB(PPM): altern. values or methods;;;;PB210_ACT(DPM/G);TH(PPM): altern. values or methods;;;;TH(PPB);U(PPM): altern. values or methods;;;;U(PPB);CO2(PPM);H2O(PPM);ND143_ND144;ND148_ND144;SM147_ND144;SR87_SR86;RB87_SR86;PB206_PB204: altern. values or methods;;;;PB206_PB207;PB206_PB208;PB207_PB204: altern. values or methods;;;;PB207_PB206;PB208_PB204: altern. values or methods;;;;PB208_PB206;OS187_OS186;OS187_OS188: altern. values or methods;;;;RE187_OS188: altern. values or methods;;;;HF176_HF177;HE3_HE4;HE3_HE4(R/R(A)): altern. values or methods;;;;HE4_HE3: altern. values or methods;;;;;;HE4_HE3(R/R(A)): altern. values or methods;;;;AR38_AR36;AR40_AR36;NE20_NE22;NE21_NE22;XE129_XE132;PB206_U238;PB207_U235;PB210_U238;TH232_U238;U238_PB204;D13C(VS SMOW);D17O(VS VSMOW);D18O(PER MIL);D18O(VS PDB);D18O(VS SMOW);D18O(VS VSMOW);D34S(VS CDT);D44_40CA(VS SRM915A);D56FE(VS IRMM-014);DD(VS SMOW);ALBITE(MOL%);ACMITE(MOL%);ANORTHITE(MOL%);ENSTATITE(MOL%);FAYALITE(MOL%);FORSTERITE(MOL%);FERROSILITE(MOL%);HEMATITE(MOL%);LARNITE(MOL%);ORTHOCLASE(MOL%);PSEUDOBROOKITE(MOL%);TEPHROITE(MOL%);ULVOSPINEL(MOL%);WOLLASTONITE(MOL%);AGE(KA);AGE(MA): altern. values or methods;;;;;;;;AGE_PB207_PB206(MA);AGE_PB207_U235(MA);AGE_PB206_U238(MA);
1965;[8630] HUCKENHOLZ H. G. (1965);samp. HF 5;;EUROPEAN OROGENIC BELT - CENOZOIC/QUATERNARY / GERMANY / EIFEL;;50;7;50.5;7;;;OUTCROP;;;SUBAERIAL;VOLCANIC ROCK;ANKARAMITE;;;;;CENOZOIC;;;;;WHOLE ROCK;;;;;;;;;;;;;;;;;;;;;;;;;;;;;;;;;;;;;;;;;;;;;;;;;;;;;;1.64;;;;;;;;;;;;;;;;;;;;;;;;;;;;;;;;;;;;;;;;;;;;;;;;;;;;;;;;;;;;;;;;;;;;;;;;;;;;;;;;;;;;;;;;;;;;;;;80;XRF;;;;;;;;;;;;;;;;;;;;;;;;;;;;;;;;;;;;;;;;;;;;;;;;;;;;;;;;;;;;;;;;;;;;;;;;;;;;;;;;;;;;;;;;;;;;;;;;;;;;;;;;;;;;;;;;;;;;;;;;;;;;;;;;;;;;;;;;;;;;;;;;;;;;;;;;;;;;;;;;;;;;;;;;;;;;;;;;;;;;;;;;
1965;[8630] HUCKENHOLZ H. G. (1965);samp. HF 53;;EUROPEAN OROGENIC BELT - CENOZOIC/QUATERNARY / GERMANY / EIFEL;;50;7;50.5;7;;;OUTCROP;;;SUBAERIAL;VOLCANIC ROCK;ANKARAMITE;;;;;CENOZOIC;;;;;WHOLE ROCK;;;;;;;;;;;;;;;;;;;;;;;;;;;;;;;;;;;;;;;;;;;;;;;;;;;;;;1.57;;;;;;;;;;;;;;;;;;;;;;;;;;;;;;;;;;;;;;;;;;;;;;;;;;;;;;;;;;;;;;;;;;;;;;;;;;;;;;;;;;;;;;;;;;;;;;;50;XRF;;;;;;;;;;;;;;;;;;;;;;;;;;;;;;;;;;;;;;;;;;;;;;;;;;;;;;;;;;;;;;;;;;;;;;;;;;;;;;;;;;;;;;;;;;;;;;;;;;;;;;;;;;;;;;;;;;;;;;;;;;;;;;;;;;;;;;;;;;;;;;;;;;;;;;;;;;;;;;;;;;;;;;;;;;;;;;;;;;;;;;;;
1965;[8630] HUCKENHOLZ H. G. (1965);samp. HF 53;;EUROPEAN OROGENIC BELT - CENOZOIC/QUATERNARY / GERMANY / EIFEL;;50;7;50.5;7;;;OUTCROP;;;SUBAERIAL;VOLCANIC ROCK;ANKARAMITE;;;;;CENOZOIC;;;;;MINERAL / COMPONENT (INCL. GROUNDMASS);OLIVINE;;PHENOCRYST;;;PRIMARY;;;;;;;;;;;;;;;;;;;;;;;;;;;;;;;;;;;;;;;;;;;;;;;;;;;;;;;;;;;;;;;;;;;;;;;;;;;;;;;;;;;;;;;;;0.037;;;;;;;;;;;;;;;;;;;;;;;;;;;;;;;;;;;;;;;;;;;;;;;;;;;;;;20;XRF;;;;;;;;;;;;;;;;;;;;;;;;;;;;;;;;;;;;;;;;;;;;;;;;;;;;;;;;;;;;;;;;;;;;;;;;;;;;;;;;;;;;;;;;;;;;;;;;;;;;;;;;;;;;;;;;;;;;;;;;;;;;;;;;;;;;;;;;;;;;;;;;;;;;;;;;;;;;;;;;;;;;;;;;;;;;;;;;;;;;;;;;
1965;[8630] HUCKENHOLZ H. G. (1965);samp. HF 5;;EUROPEAN OROGENIC BELT - CENOZOIC/QUATERNARY / GERMANY / EIFEL;;50;7;50.5;7;;;OUTCROP;;;SUBAERIAL;VOLCANIC ROCK;ANKARAMITE;;;;;CENOZOIC;;;;;MINERAL / COMPONENT (INCL. GROUNDMASS);TITANO-MAGNETITE;;PHENOCRYST;;;PRIMARY;;;;;;;;;;;;;;;;;;;;;;;;;;;;;;;;;;;;;;;;;;;;;;;;;;;;;;;;;;;;;;;;;;;;;;;;;;;;;;;;;;;;;;;;;11.63;;;;;;;;;;;;;;;;;;;;;;;;;;;;;;;;;;;;;;;;;;;;;;;;;;;;;;1000;XRF;;;;;;;;;;;;;;;;;;;;;;;;;;;;;;;;;;;;;;;;;;;;;;;;;;;;;;;;;;;;;;;;;;;;;;;;;;;;;;;;;;;;;;;;;;;;;;;;;;;;;;;;;;;;;;;;;;;;;;;;;;;;;;;;;;;;;;;;;;;;;;;;;;;;;;;;;;;;;;;;;;;;;;;;;;;;;;;;;;;;;;;;
1965;[8630] HUCKENHOLZ H. G. (1965);samp. HF 5;;EUROPEAN OROGENIC BELT - CENOZOIC/QUATERNARY / GERMANY / EIFEL;;50;7;50.5;7;;;OUTCROP;;;SUBAERIAL;VOLCANIC ROCK;ANKARAMITE;;;;;CENOZOIC;;;;;MINERAL / COMPONENT (INCL. GROUNDMASS);CLINOPYROXENE;;GROUNDMASS;;;PRIMARY;;;;;;;;;;;;;;;;;;;;;;;;;;;;;;;;;;;;;;;;;;;;;;;;;;;;;;;;;;;;;;;;;;;;;;;;;;;;;;;;;;;;;;;;;1.78;;;;;;;;;;;;;;;;;;;;;;;;;;;;;;;;;;;;;;;;;;;;;;;;;;;;;;45;XRF;;;;;;;;;;;;;;;;;;;;;;;;;;;;;;;;;;;;;;;;;;;;;;;;;;;;;;;;;;;;;;;;;;;;;;;;;;;;;;;;;;;;;;;;;;;;;;;;;;;;;;;;;;;;;;;;;;;;;;;;;;;;;;;;;;;;;;;;;;;;;;;;;;;;;;;;;;;;;;;;;;;;;;;;;;;;;;;;;;;;;;;;
1994;[9384] EHRENBERG K.-H. (1994);samp. 26137;165511;EUROPEAN OROGENIC BELT - CENOZOIC/QUATERNARY / GERMANY / RHN;EUBE, KUPPENRHN;50.5;9.93;50.5;9.93;;;OUTCROP;;;SUBAERIAL;VOLCANIC ROCK;ANKARAMITE;;;;;;;;;;WHOLE ROCK;;;;;;;;;;;;;;42.51;3.16;12.88;;;;;7.39;;4.69;11.95;10.6;0.16;;;;;;0.56;NOT;;;2.55;NOT;;;0.53;;1.38;0.85;0.04;;;0.02;0;;;;;;;;;;;;;;;;;;;;;;;;;;;;;;;;;;;;;;;;;;;;;;;;328;NOT;;;360;NOT;;;;;;;;;;;175;NOT;;;;;62;NOT;;;87;NOT;;;18;NOT;;;;;;90;NOT;;;795;NOT;;;26;NOT;;;238;NOT;;;65;NOT;;;;;;;;;;;;588;NOT;;;47.1;ICPMS;;;94.2;ICPMS;;;;;;;48.75;ICPMS;;;12.78;ICPMS;;;4.07;ICPMS;;;7.51;;;;;5.73;;2.11;;1.74;ICPMS;;;;;;;;;;;;;;;;;;;;;;;;;5;NOT;;;;3;NOT;;;;0;NOT;;;;;;;;;;;;;;;;;;;;;;;;;;;;;;;;;;;;;;;;;;;;;;;;;;;;;;;;;;;;;;;;;;;;;;;;;;;;;;;;;;;;;;;;;;;;;;;;;;
1994;[9384] EHRENBERG K.-H. (1994);samp. 26138;165512;EUROPEAN OROGENIC BELT - CENOZOIC/QUATERNARY / GERMANY / RHN;EUBE, KUPPENRHN;50.5;9.93;50.5;9.93;;;OUTCROP;;;SUBAERIAL;VOLCANIC ROCK;ANKARAMITE;;;;;;;;;;WHOLE ROCK;;;;;;;;;;;;;;42.39;2.91;12.35;;;;;6.15;;5.83;11.57;11.02;0.16;;;;;;0.6;NOT;;;2.2;NOT;;;0.49;;1.35;1.63;0.08;;;0.03;0;;;;;;;;;;;;;;;;;;;;;;;;;;;;;;;;;;;;;;;;;;;;;;;;315;NOT;;;374;NOT;;;;;;;;;;;216;NOT;;;;;55;NOT;;;86;NOT;;;18;NOT;;;;;;80;NOT;;;742;NOT;;;25;NOT;;;213;NOT;;;48;NOT;;;;;;;;;;;;549;NOT;;;38.4;ICPMS;;;78;ICPMS;;;;;;;41.08;ICPMS;;;10.95;ICPMS;;;2.95;ICPMS;;;6.35;;;;;4.98;;1.65;;1.45;ICPMS;;;;;;;;;;;;;;;;;;;;;;;;;0;NOT;;;;7;NOT;;;;0;NOT;;;;;;;;;;;;;;;;;;;;;;;;;;;;;;;;;;;;;;;;;;;;;;;;;;;;;;;;;;;;;;;;;;;;;;;;;;;;;;;;;;;;;;;;;;;;;;;;;;
1992;[9555] STEIN M. (1992);samp. DB-225;;ARABIAN-NUBIAN SHIELD / ISRAEL / SOUTHERN ISRAEL / RAMON CRATER;PRISMOT HILL, WESTERN RAMON CRATER;30.6;34.82;30.6;34.82;;;OUTCROP;;;SUBAERIAL;VOLCANIC ROCK;ANKARAMITE;;;;;CRETACEOUS;LOWER;;;;WHOLE ROCK;;;;;;;;;;;;;;42.9;2.37;13.4;;;;;3.19;;8.56;11.5;10.4;0.23;;;;;;0.96;NOT;;;3.1;NOT;;;0.68;;1.41;0.75;0.03;;;;;;;;;;;;;;;;;;;;;;;;;;;;;;;;;;;;;;;;;;;;;30.4;NOT;;;;;;;;;;468;NOT;;;;;55.4;NOT;;;;;200;NOT;;;;;;;;;;;;;;;;;;;;;;;;697;NOT;;;;;;;;;;;;;;;;;;;;;;;;572;NOT;;;44.9;NOT;;;89.2;NOT;;;;;;;35.2;NOT;;;7.14;NOT;;;2.51;NOT;;;;1.11;NOT;;;;;;;1.77;NOT;;;;;;;;3.33;;;;;;;;;;;;;;;;;;;;;;5.71;NOT;;;;1.41;NOT;;;;;;;;;;;;;;;;;;;;;;;;;;;;;;;;;;;;;;;;;;;;;;;;;;;;;;;;;;;;;;;;;;;;;;;;;;;;;;;;;;;;;;;;;;;;;;;;;;
1992;[9555] STEIN M. (1992);samp. DB-226;;ARABIAN-NUBIAN SHIELD / ISRAEL / SOUTHERN ISRAEL / RAMON CRATER;PRISMOT HILL, WESTERN RAMON CRATER;30.6;34.82;30.6;34.82;;;OUTCROP;;;SUBAERIAL;VOLCANIC ROCK;ANKARAMITE;;;;;CRETACEOUS;LOWER;;;;WHOLE ROCK;;;;;;;;;;;;;;42.2;2.45;13.6;;;;;2.71;;8.4;10.6;11.6;0.23;;;;;;1.05;NOT;;;3.17;NOT;;;0.61;;2.07;0;0;;;;;;;;;;;;;;;;;;;;;;;;;;;;;;;;;;;;;;;;;;;;;29.5;NOT;;;;;;;;;;464;NOT;;;;;54;NOT;;;;;245;NOT;;;;;;;;;;;;;;;;;;;;;;;;810;NOT;;;;;;;;;;;;;;;;;;;;;;;;521;NOT;;;45.5;NOT;;;91.3;NOT;;;;;;;35;NOT;;;6.98;NOT;;;2.47;NOT;;;;1.03;NOT;;;;;;;1.62;NOT;;;;;;;;3.42;;;;;;;;;;;;;;;;;;;;;;6.26;NOT;;;;1.33;NOT;;;;;;;;;;;;;;;;;;;;;;;;;;;;;;;;;;;;;;;;;;;;;;;;;;;;;;;;;;;;;;;;;;;;;;;;;;;;;;;;;;;;;;;;;;;;;;;;;;
1992;[9555] STEIN M. (1992);samp. DB-227;;ARABIAN-NUBIAN SHIELD / ISRAEL / SOUTHERN ISRAEL / RAMON CRATER;PRISMOT HILL, WESTERN RAMON CRATER;30.6;34.82;30.6;34.82;;;OUTCROP;;;SUBAERIAL;VOLCANIC ROCK;ANKARAMITE;;;;;CRETACEOUS;LOWER;;;;WHOLE ROCK;;;;;;;;;;;;;;42.8;2.41;13.3;;;;;3.57;;7.98;11;11;0.23;;;;;;1.16;NOT;;;3.31;NOT;;;0.69;;1.85;0;0;;;;;;;;;;;;;;;;;;;;;;;;;;;;;;;;;;;;;;;;;;;;;28.9;NOT;;;;;;;;;;479;NOT;;;;;54.7;NOT;;;;;249;NOT;;;;;;;;;;;;;;;;;;;;12.8;NOT;;;789;NOT;;;;;;;;;;;;;;;;;;;;;;;;555;NOT;;;45.9;NOT;;;91.5;NOT;;;;;;;34.8;NOT;;;7.06;NOT;;;2.45;NOT;;;;1.07;NOT;;;;;;;1.29;NOT;;;;;;;;3.47;;;;;;;;;;;;;;;;;;;;;;6.03;NOT;;;;1.29;NOT;;;;;;0.51283;;;0.7032;;;;;;;;;;;;;;;;;;;;;;;;;;;;;;;;;;;;;;;;;;;;;;;;;;;;;;;;;;;;;;;;;;;;;;;;;;;;;;;;;;;;;;;;;
2006;[9563] KOHUT E. J. (2006);samp. D14-1-4;173040;IZU-BONIN-MARIANA ARC / CHAIFE SEAMOUNT / DREDGE D14;SOUTHERN SEAMOUNT PROVINCE;14.6617;145.0003;14.6617;145.0003;-1860;-2188;DREDGE;;;SUBAQUATIC;VOLCANIC ROCK;ANKARAMITE;;LAVA;;;;;;;;WHOLE ROCK;;;;;;;;;;;;;;48.24;0.47;9.09;;;;;;8.21;;14.09;15.36;0.15;;;;;;0.52;ICPMS;;;1.43;ICPMS;;;0.09;;;;;;;;;;;;;;;;;;;;;;;;;;;;;;;;;;;;;;;;;;;;;;;;;55;ICPMS;;;;;;230;ICPMS;;;;;;;;;;;;;;;;;;;;;;;;;;;;;;;;;;;;;;;;328;ICPMS;;;9;ICPMS;;;24;ICPMS;;;;;;;;;;;;;;;;86;ICPMS;;;;;;;;;;;;;;;;;;;;;;;;;;;;;;;;;;;;;;;;;;;;;;;;;;;;;;;;;;;;;;;;;;;;;;;;;;;;;;;0.512938;;;0.703362;;19.02;TIMS;;;;;15.56;TIMS;;;;38.54;TIMS;;;;;;;;;;;;;;;;;;;;;;;;;;;;;;;;;;;;;;;;;;;;;;;;;;;;;;;;;;;;;;;;1.76;AR-AR;;;;;;;;;;
2006;[9563] KOHUT E. J. (2006);samp. D14-1-5;173041;IZU-BONIN-MARIANA ARC / CHAIFE SEAMOUNT / DREDGE D14;SOUTHERN SEAMOUNT PROVINCE;14.6617;145.0003;14.6617;145.0003;-1860;-2188;DREDGE;;;SUBAQUATIC;VOLCANIC ROCK;ANKARAMITE;;LAVA;;;;;;;;WHOLE ROCK;;;;;;;;;;;;;;47.94;0.47;9.94;;;;;;8.22;;14.04;15.23;;;;;;;0.53;ICPMS;;;1.41;ICPMS;;;0.09;;;;;;;;;;;;;;;;;;;;;;;;;;;;;;;;;;;;;;;;;;;;;;;;;54;ICPMS;;;;;;229;ICPMS;;;808;ICPMS;;;;;53;ICPMS;;;;;214;ICPMS;;;;;52;ICPMS;;;77;ICPMS;;;;;;;;;;5;ICPMS;;;327;ICPMS;;;9;ICPMS;;;22;ICPMS;;;1;ICPMS;;;;;;;;;;;0;87;ICPMS;;;3.8;ICPMS;;;8.6;ICPMS;;;1.2;ICPMS;;;5.7;ICPMS;;;1.6;ICPMS;;;0.6;ICPMS;;;1.9;0.3;ICPMS;;;1.8;0.4;1.1;0.2;1;ICPMS;;;0.2;;;;;;;;;;;;;;;;;;;;;;;;;;;;;;;;;;;;;;;0.512977;;;0.703359;;19.05;TIMS;;;;;15.59;TIMS;;;;38.6;TIMS;;;;;;;;;;;;;0.283185;;;;;;;;;;;;;;;;;;;;;;;;;;;;;;;;;;;;;;;;;;;;;;;;;;;2.49;AR-AR;;;;;;;;;;
2006;[9563] KOHUT E. J. (2006);samp. D14-1;;IZU-BONIN-MARIANA ARC / CHAIFE SEAMOUNT / DREDGE D14;SOUTHERN SEAMOUNT PROVINCE;14.6617;145.0003;14.6617;145.0003;-1860;-2188;DREDGE;;;SUBAQUATIC;VOLCANIC ROCK;ANKARAMITE;;LAVA;;;;;;;;MINERAL / COMPONENT (INCL. GROUNDMASS);OLIVINE;11;PHENOCRYST;;;PRIMARY;;;;;;;;38.7;;;0.11;;;;;8.42;;0.13;48.71;0.15;;;0.25;;;;;;;0;EMP (EPMA);;;;;;;;;;;;;;;;;;;;;;;;;;;;;;;;;;;;;;;;;;;;;;;;;;;;;;;;;;;;;;;;;;;;;;;;;;;;;;;;;;;;;;;;;;;;;;;;;;;;;;;;;;;;;;;;;;;;;;;;;;;;;;;;;;;;;;;;;;;;;;;;;;;;;;;;;;;;;;;;;;;;;;;;;;;;;;;;;;;;;;;;;;;;;;;;;;;;;;;;;;;;;;;;;;;;;;;;;;;;;;;;;;;;;;;;;;;;;;;;;;;;;;;;;;;;;;;;;;;;;;;;;;;;;;;;;;;;91.2;;;;;;;;;;;;;;;;;;;;;
2006;[9563] KOHUT E. J. (2006);samp. D14-1;;IZU-BONIN-MARIANA ARC / CHAIFE SEAMOUNT / DREDGE D14;SOUTHERN SEAMOUNT PROVINCE;14.6617;145.0003;14.6617;145.0003;-1860;-2188;DREDGE;;;SUBAQUATIC;VOLCANIC ROCK;ANKARAMITE;;LAVA;;;;;;;;MINERAL / COMPONENT (INCL. GROUNDMASS);OLIVINE;12;PHENOCRYST;;;PRIMARY;;;;;;;;38.12;;;0.08;;;;;9.13;;0.15;48.3;0.15;;;0.15;;;;;;;0.01;EMP (EPMA);;;;;;;;;;;;;;;;;;;;;;;;;;;;;;;;;;;;;;;;;;;;;;;;;;;;;;;;;;;;;;;;;;;;;;;;;;;;;;;;;;;;;;;;;;;;;;;;;;;;;;;;;;;;;;;;;;;;;;;;;;;;;;;;;;;;;;;;;;;;;;;;;;;;;;;;;;;;;;;;;;;;;;;;;;;;;;;;;;;;;;;;;;;;;;;;;;;;;;;;;;;;;;;;;;;;;;;;;;;;;;;;;;;;;;;;;;;;;;;;;;;;;;;;;;;;;;;;;;;;;;;;;;;;;;;;;;;;90.4;;;;;;;;;;;;;;;;;;;;;
2006;[9563] KOHUT E. J. (2006);samp. D14-1;;IZU-BONIN-MARIANA ARC / CHAIFE SEAMOUNT / DREDGE D14;SOUTHERN SEAMOUNT PROVINCE;14.6617;145.0003;14.6617;145.0003;-1860;-2188;DREDGE;;;SUBAQUATIC;VOLCANIC ROCK;ANKARAMITE;;LAVA;;;;;;;;MINERAL / COMPONENT (INCL. GROUNDMASS);OLIVINE;13;PHENOCRYST;;;PRIMARY;;;;;;;;38.62;;;0.06;;;;;10.33;;0.2;48.1;0.15;;;0.15;;;;;;;0.01;EMP (EPMA);;;;;;;;;;;;;;;;;;;;;;;;;;;;;;;;;;;;;;;;;;;;;;;;;;;;;;;;;;;;;;;;;;;;;;;;;;;;;;;;;;;;;;;;;;;;;;;;;;;;;;;;;;;;;;;;;;;;;;;;;;;;;;;;;;;;;;;;;;;;;;;;;;;;;;;;;;;;;;;;;;;;;;;;;;;;;;;;;;;;;;;;;;;;;;;;;;;;;;;;;;;;;;;;;;;;;;;;;;;;;;;;;;;;;;;;;;;;;;;;;;;;;;;;;;;;;;;;;;;;;;;;;;;;;;;;;;;;89.2;;;;;;;;;;;;;;;;;;;;;
2006;[9563] KOHUT E. J. (2006);samp. D14-1;;IZU-BONIN-MARIANA ARC / CHAIFE SEAMOUNT / DREDGE D14;SOUTHERN SEAMOUNT PROVINCE;14.6617;145.0003;14.6617;145.0003;-1860;-2188;DREDGE;;;SUBAQUATIC;VOLCANIC ROCK;ANKARAMITE;;LAVA;;;;;;;;MINERAL / COMPONENT (INCL. GROUNDMASS);OLIVINE;14;PHENOCRYST;;;PRIMARY;;;;;;;;38.44;;;0.07;;;;;8.14;;0.08;52.66;0.13;;;0.15;;;;;;;0.03;EMP (EPMA);;;;;;;;;;;;;;;;;;;;;;;;;;;;;;;;;;;;;;;;;;;;;;;;;;;;;;;;;;;;;;;;;;;;;;;;;;;;;;;;;;;;;;;;;;;;;;;;;;;;;;;;;;;;;;;;;;;;;;;;;;;;;;;;;;;;;;;;;;;;;;;;;;;;;;;;;;;;;;;;;;;;;;;;;;;;;;;;;;;;;;;;;;;;;;;;;;;;;;;;;;;;;;;;;;;;;;;;;;;;;;;;;;;;;;;;;;;;;;;;;;;;;;;;;;;;;;;;;;;;;;;;;;;;;;;;;;;;92;;;;;;;;;;;;;;;;;;;;;
2006;[9563] KOHUT E. J. (2006);samp. D14-1;;IZU-BONIN-MARIANA ARC / CHAIFE SEAMOUNT / DREDGE D14;SOUTHERN SEAMOUNT PROVINCE;14.6617;145.0003;14.6617;145.0003;-1860;-2188;DREDGE;;;SUBAQUATIC;VOLCANIC ROCK;ANKARAMITE;;LAVA;;;;;;;;MINERAL / COMPONENT (INCL. GROUNDMASS);OLIVINE;15;GROUNDMASS;;;PRIMARY;;;;;;;;38.04;;;0.04;;;;;14.5;;0.24;45.26;0.14;;;0.1;;;;;;;0;EMP (EPMA);;;;;;;;;;;;;;;;;;;;;;;;;;;;;;;;;;;;;;;;;;;;;;;;;;;;;;;;;;;;;;;;;;;;;;;;;;;;;;;;;;;;;;;;;;;;;;;;;;;;;;;;;;;;;;;;;;;;;;;;;;;;;;;;;;;;;;;;;;;;;;;;;;;;;;;;;;;;;;;;;;;;;;;;;;;;;;;;;;;;;;;;;;;;;;;;;;;;;;;;;;;;;;;;;;;;;;;;;;;;;;;;;;;;;;;;;;;;;;;;;;;;;;;;;;;;;;;;;;;;;;;;;;;;;;;;;;;;85.2;;;;;;;;;;;;;;;;;;;;;
2006;[9563] KOHUT E. J. (2006);samp. D14-1;;IZU-BONIN-MARIANA ARC / CHAIFE SEAMOUNT / DREDGE D14;SOUTHERN SEAMOUNT PROVINCE;14.6617;145.0003;14.6617;145.0003;-1860;-2188;DREDGE;;;SUBAQUATIC;VOLCANIC ROCK;ANKARAMITE;;LAVA;;;;;;;;MINERAL / COMPONENT (INCL. GROUNDMASS);CLINOPYROXENE;10;PHENOCRYST;;;PRIMARY;;;;;;;;50.8;0.18;2.22;1.09;;;;;3.52;;21.82;17.18;0.07;;;;;;;;;;0.13;EMP (EPMA);;;;;;;;;;;;;;;;;;;;;;;;;;;;;;;;;;;;;;;;;;;;;;;;;;;;;;;;;;;;;;;;;;;;;;;;;;;;;;;;;;;;;;;;;;;;;;;;;;;;;;;;;;;;;;;;;;;;;;;;;;;;;;;;;;;;;;;;;;;;;;;;;;;;;;;;;;;;;;;;;;;;;;;;;;;;;;;;;;;;;;;;;;;;;;;;;;;;;;;;;;;;;;;;;;;;;;;;;;;;;;;;;;;;;;;;;;;;;;;;;;;;;;;;;;;;;;;;;;;;;;;;;;;;;;;;;;49.3;;;5.7;;;;;;;45;;;;;;;;;;;;;
2006;[9563] KOHUT E. J. (2006);samp. D14-1;;IZU-BONIN-MARIANA ARC / CHAIFE SEAMOUNT / DREDGE D14;SOUTHERN SEAMOUNT PROVINCE;14.6617;145.0003;14.6617;145.0003;-1860;-2188;DREDGE;;;SUBAQUATIC;VOLCANIC ROCK;ANKARAMITE;;LAVA;;;;;;;;MINERAL / COMPONENT (INCL. GROUNDMASS);CLINOPYROXENE;11;PHENOCRYST;;;PRIMARY;;;;;;;;51.74;0.13;1.45;0.56;;;;;3.4;;21.42;18.49;0.08;;;;;;;;;;0.1;EMP (EPMA);;;;;;;;;;;;;;;;;;;;;;;;;;;;;;;;;;;;;;;;;;;;;;;;;;;;;;;;;;;;;;;;;;;;;;;;;;;;;;;;;;;;;;;;;;;;;;;;;;;;;;;;;;;;;;;;;;;;;;;;;;;;;;;;;;;;;;;;;;;;;;;;;;;;;;;;;;;;;;;;;;;;;;;;;;;;;;;;;;;;;;;;;;;;;;;;;;;;;;;;;;;;;;;;;;;;;;;;;;;;;;;;;;;;;;;;;;;;;;;;;;;;;;;;;;;;;;;;;;;;;;;;;;;;;;;;;;51.7;;;5.3;;;;;;;43;;;;;;;;;;;;;
2006;[9563] KOHUT E. J. (2006);samp. D14-1;;IZU-BONIN-MARIANA ARC / CHAIFE SEAMOUNT / DREDGE D14;SOUTHERN SEAMOUNT PROVINCE;14.6617;145.0003;14.6617;145.0003;-1860;-2188;DREDGE;;;SUBAQUATIC;VOLCANIC ROCK;ANKARAMITE;;LAVA;;;;;;;;MINERAL / COMPONENT (INCL. GROUNDMASS);CLINOPYROXENE;12;PHENOCRYST;;;PRIMARY;;;;;;;;51.06;0.19;2.22;0.88;;;;;3.49;;21.73;17.09;0.07;;;;;;;;;;0.13;EMP (EPMA);;;;;;;;;;;;;;;;;;;;;;;;;;;;;;;;;;;;;;;;;;;;;;;;;;;;;;;;;;;;;;;;;;;;;;;;;;;;;;;;;;;;;;;;;;;;;;;;;;;;;;;;;;;;;;;;;;;;;;;;;;;;;;;;;;;;;;;;;;;;;;;;;;;;;;;;;;;;;;;;;;;;;;;;;;;;;;;;;;;;;;;;;;;;;;;;;;;;;;;;;;;;;;;;;;;;;;;;;;;;;;;;;;;;;;;;;;;;;;;;;;;;;;;;;;;;;;;;;;;;;;;;;;;;;;;;;;49.3;;;5.6;;;;;;;45.1;;;;;;;;;;;;;
2006;[9563] KOHUT E. J. (2006);samp. D14-1;;IZU-BONIN-MARIANA ARC / CHAIFE SEAMOUNT / DREDGE D14;SOUTHERN SEAMOUNT PROVINCE;14.6617;145.0003;14.6617;145.0003;-1860;-2188;DREDGE;;;SUBAQUATIC;VOLCANIC ROCK;ANKARAMITE;;LAVA;;;;;;;;MINERAL / COMPONENT (INCL. GROUNDMASS);CLINOPYROXENE;13;PHENOCRYST;;;PRIMARY;;;;;;;;55.44;0.12;1.56;0.81;;;;;2.86;;22.16;16.19;0.07;;;;;;;;;;0.12;EMP (EPMA);;;;;;;;;;;;;;;;;;;;;;;;;;;;;;;;;;;;;;;;;;;;;;;;;;;;;;;;;;;;;;;;;;;;;;;;;;;;;;;;;;;;;;;;;;;;;;;;;;;;;;;;;;;;;;;;;;;;;;;;;;;;;;;;;;;;;;;;;;;;;;;;;;;;;;;;;;;;;;;;;;;;;;;;;;;;;;;;;;;;;;;;;;;;;;;;;;;;;;;;;;;;;;;;;;;;;;;;;;;;;;;;;;;;;;;;;;;;;;;;;;;;;;;;;;;;;;;;;;;;;;;;;;;;;;;;;;48;;;4.8;;;;;;;47.2;;;;;;;;;;;;;
2006;[9563] KOHUT E. J. (2006);samp. D14-1;;IZU-BONIN-MARIANA ARC / CHAIFE SEAMOUNT / DREDGE D14;SOUTHERN SEAMOUNT PROVINCE;14.6617;145.0003;14.6617;145.0003;-1860;-2188;DREDGE;;;SUBAQUATIC;VOLCANIC ROCK;ANKARAMITE;;LAVA;;;;;;;;MINERAL / COMPONENT (INCL. GROUNDMASS);CLINOPYROXENE;14;PHENOCRYST;;;PRIMARY;;;;;;;;52.87;0.18;1.53;0.18;;;;;4.42;;21.09;18.18;0.08;;;;;;;;;;0.13;EMP (EPMA);;;;;;;;;;;;;;;;;;;;;;;;;;;;;;;;;;;;;;;;;;;;;;;;;;;;;;;;;;;;;;;;;;;;;;;;;;;;;;;;;;;;;;;;;;;;;;;;;;;;;;;;;;;;;;;;;;;;;;;;;;;;;;;;;;;;;;;;;;;;;;;;;;;;;;;;;;;;;;;;;;;;;;;;;;;;;;;;;;;;;;;;;;;;;;;;;;;;;;;;;;;;;;;;;;;;;;;;;;;;;;;;;;;;;;;;;;;;;;;;;;;;;;;;;;;;;;;;;;;;;;;;;;;;;;;;;;50.8;;;6.9;;;;;;;42.3;;;;;;;;;;;;;
2006;[9563] KOHUT E. J. (2006);samp. D14-1;;IZU-BONIN-MARIANA ARC / CHAIFE SEAMOUNT / DREDGE D14;SOUTHERN SEAMOUNT PROVINCE;14.6617;145.0003;14.6617;145.0003;-1860;-2188;DREDGE;;;SUBAQUATIC;VOLCANIC ROCK;ANKARAMITE;;LAVA;;;;;;;;MINERAL / COMPONENT (INCL. GROUNDMASS);CLINOPYROXENE;15;GROUNDMASS;;;PRIMARY;;;;;;;;49.33;0.44;3.96;0.17;;;;;5.41;;21.2;16.39;0.12;;;;;;;;;;0.13;EMP (EPMA);;;;;;;;;;;;;;;;;;;;;;;;;;;;;;;;;;;;;;;;;;;;;;;;;;;;;;;;;;;;;;;;;;;;;;;;;;;;;;;;;;;;;;;;;;;;;;;;;;;;;;;;;;;;;;;;;;;;;;;;;;;;;;;;;;;;;;;;;;;;;;;;;;;;;;;;;;;;;;;;;;;;;;;;;;;;;;;;;;;;;;;;;;;;;;;;;;;;;;;;;;;;;;;;;;;;;;;;;;;;;;;;;;;;;;;;;;;;;;;;;;;;;;;;;;;;;;;;;;;;;;;;;;;;;;;;;;47.3;;;8.8;;;;;;;44;;;;;;;;;;;;;