Year;CITATION;SAMPLE NAME;UNIQUE_ID;LOCATION;LOCATION COMMENT;LATITUDE (MIN.);LONGITUDE (MIN.);LATITUDE (MAX.);LONGITUDE (MAX.);ELEVATION (MIN.);ELEVATION (MAX.);SAMPLING TECHNIQUE;DRILLING DEPTH (MIN.);DRILLING DEPTH (MAX.);LAND/SEA (SAMPLING);ROCK TYPE;ROCK NAME;ROCK TEXTURE;SAMPLE COMMENT;AGE (MIN.);AGE (MAX.);GEOLOGICAL AGE;GEOLOGICAL AGE PREFIX;ERUPTION YEAR;ALTERATION;ALTERATION TYPE;TYPE OF MATERIAL;MINERAL / COMPONENT;SPOT (MINERAL);CRYSTAL;RIM / CORE (MINERAL GRAINS);GRAIN SIZE;PRIMARY/SECONDARY;INCLUSION TYPE;SPOT (INCLUSION);MINERAL (INCLUSION);RIM / CORE (INCLUSION);HOSTMINERAL (INCLUSION);HEATING;HEATING TEMPERATURE (?C);SIO2(WT%);TIO2(WT%);AL2O3(WT%);CR2O3(WT%);V2O3(WT%);V2O5(WT%);FE2O3T(WT%);FE2O3(WT%);FEOT(WT%);FEO(WT%);CAO(WT%);MGO(WT%);MNO(WT%);BAO(WT%);SRO(WT%);NIO(WT%);ZNO(WT%);COO(WT%);K2O(WT%);;;;NA2O(WT%);;;;P2O5(WT%);H2O(WT%);H2OP(WT%);H2OM(WT%);CO2(WT%);F(WT%);CL(WT%);CL2(WT%);SO3(WT%);S(WT%);LOI(WT%);O(WT%);SI(WT%);AL(WT%);TI(WT%);FE(WT%);MG(WT%);MN(WT%);CA(WT%);K(WT%): altern. values or methods;;;;NA(WT%);CR(WT%);NI(WT%);HE(CCMSTP/G);HE3(CCMSTP/G);HE4(CCMSTP/G): altern. values or methods;;;;LI(PPM);BE(PPM);B(PPM);F(PPM);NE20(CCMSTP/G);NE22(CCMSTP/G);P(PPM);S(PPM);CL(PPM);AR36(CCMSTP/G);AR40(CCMSTP/G);AR40(MOL/G): altern. values or methods;;;;AR40(PPB);K(PPM);SC(PPM): altern. values or methods;;;;;;TI(PPM);V(PPM): altern. values or methods;;;;CR(PPM): altern. values or methods;;;;MN(PPM);FE(PPM);CO(PPM): altern. values or methods;;;;;;NI(PPM): altern. values or methods;;;;;;CU(PPM): altern. values or methods;;;;ZN(PPM): altern. values or methods;;;;GA(PPM): altern. values or methods;;;;GE(PPM);AS(PPM);KR84(CCMSTP/G);RB(PPM): altern. values or methods;;;;SR(PPM): altern. values or methods;;;;Y(PPM): altern. values or methods;;;;ZR(PPM): altern. values or methods;;;;NB(PPM): altern. values or methods;;;;MO(PPM);RU(PPB);RH(PPB);PD(PPB);IN(PPM);SN(PPM);SB(PPM);XE132(CCMSTP/G);CS(PPM);BA(PPM): altern. values or methods;;;;LA(PPM): altern. values or methods;;;;CE(PPM): altern. values or methods;;;;PR(PPM): altern. values or methods;;;;ND(PPM): altern. values or methods;;;;SM(PPM): altern. values or methods;;;;EU(PPM): altern. values or methods;;;;GD(PPM);TB(PPM): altern. values or methods;;;;DY(PPM);HO(PPM);ER(PPM);TM(PPM);YB(PPM): altern. values or methods;;;;LU(PPM);HF(PPM): altern. values or methods;;;;TA(PPM);W(PPM);RE(PPB): altern. values or methods;;;;RE(PPT);OS(PPB): altern. values or methods;;;;OS(PPT);IR(PPB);PT(PPB);AU(PPB);HG(PPB);TL(PPM);PB(PPM): altern. values or methods;;;;PB210_ACT(DPM/G);TH(PPM): altern. values or methods;;;;TH(PPB);U(PPM): altern. values or methods;;;;U(PPB);CO2(PPM);H2O(PPM);ND143_ND144;ND148_ND144;SM147_ND144;SR87_SR86;RB87_SR86;PB206_PB204: altern. values or methods;;;;PB206_PB207;PB206_PB208;PB207_PB204: altern. values or methods;;;;PB207_PB206;PB208_PB204: altern. values or methods;;;;PB208_PB206;OS187_OS186;OS187_OS188: altern. values or methods;;;;RE187_OS188: altern. values or methods;;;;HF176_HF177;HE3_HE4;HE3_HE4(R/R(A)): altern. values or methods;;;;HE4_HE3: altern. values or methods;;;;;;HE4_HE3(R/R(A)): altern. values or methods;;;;AR38_AR36;AR40_AR36;NE20_NE22;NE21_NE22;XE129_XE132;PB206_U238;PB207_U235;PB210_U238;TH232_U238;U238_PB204;D13C(VS SMOW);D17O(VS VSMOW);D18O(PER MIL);D18O(VS PDB);D18O(VS SMOW);D18O(VS VSMOW);D34S(VS CDT);D44_40CA(VS SRM915A);D56FE(VS IRMM-014);DD(VS SMOW);ALBITE(MOL%);ACMITE(MOL%);ANORTHITE(MOL%);ENSTATITE(MOL%);FAYALITE(MOL%);FORSTERITE(MOL%);FERROSILITE(MOL%);HEMATITE(MOL%);LARNITE(MOL%);ORTHOCLASE(MOL%);PSEUDOBROOKITE(MOL%);TEPHROITE(MOL%);ULVOSPINEL(MOL%);WOLLASTONITE(MOL%);AGE(KA);AGE(MA): altern. values or methods;;;;;;;;AGE_PB207_PB206(MA);AGE_PB207_U235(MA);AGE_PB206_U238(MA);
1996;[1199] WOODHEAD J. D. (1996);samp. M2ACIDWASHED;36258;AUSTRAL-COOK ISLANDS / MANGAIA;VAU ROA STREAM VALLEY;-21.93;-157.93;-21.93;-157.93;;;OUTCROP;;;SUBAERIAL;VOLCANIC ROCK;ANKARAMITE;PORPHYRITIC;;;;;;;;;WHOLE ROCK;;;;;;;;;;;;;;45.06;2.81;12.74;;;;13.77;;;;11.41;9.49;0.2;;;;;;0.85;XRF;;;3.25;XRF;;;0.41;;;;;;;;;;0.69;;;;;;;;;;;;;;;;;;;;;;;;;;;;;;;;;;;;;;;31;ICPMS;;;;;;281;ICPMS;;;448;ICPMS;;;;;55;ICPMS;;;;;186;ICPMS;;;;;125;ICPMS;;;109;ICPMS;;;21;ICPMS;;;;;;19.2;ICPMS;;;497;ICPMS;;;29.9;ICPMS;;;234;ICPMS;;;60.8;ICPMS;;;;;;;;;;;0.345;246;ICPMS;;;38.4;ICPMS;;;79.4;ICPMS;;;9.15;ICPMS;;;38.4;ICPMS;;;7.8;ICPMS;;;2.41;ICPMS;;;7.08;1.07;ICPMS;;;5.57;1.022;2.65;0.34;2.08;ICPMS;;;0.294;5.1;ICPMS;;;3.5;;;;;;;;;;;;;;;;;2.36;ICPMS;;;;4.9;ICPMS;;;;1.36;ICPMS;;;;;;;;;;;;;;;;;;;;;;;;;;;;;;;;;;;;;;;;;;;;;;;;;;;;;;;;;;;;;;;;;;;;;;;;;;;;;;;;;;;;;;;;;;;;;;;;;;
1996;[1199] WOODHEAD J. D. (1996);samp. M4ACID WASHED;36263;AUSTRAL-COOK ISLANDS / MANGAIA;VAU ROA STREAM VALLEY;-21.93;-157.93;-21.93;-157.93;;;OUTCROP;;;SUBAERIAL;VOLCANIC ROCK;ANKARAMITE;PORPHYRITIC;;;;;;;;;WHOLE ROCK;;;;;;;;;;;;;;43.64;2.35;9.62;;;;13.73;;;;14.42;13.47;0.21;;;;;;0.55;XRF;;;2.05;XRF;;;0.25;;;;;;;;;;5.66;;;;;;;;;;;;;;;;;;;;;;;;;;;;;;;;;;;;;;;44;ICPMS;;;;;;280;ICPMS;;;867;ICPMS;;;;;73;ICPMS;;;;;327;ICPMS;;;;;119;ICPMS;;;98;ICPMS;;;16;ICPMS;;;;;;13.5;ICPMS;;;430;ICPMS;;;23;ICPMS;;;159;ICPMS;;;38.2;ICPMS;;;;;;;;;;;0.116;179;ICPMS;;;25.1;ICPMS;;;54.1;ICPMS;;;6.47;ICPMS;;;28.3;ICPMS;;;5.99;ICPMS;;;1.85;ICPMS;;;5.53;0.843;ICPMS;;;4.25;0.798;2.01;0.244;1.55;ICPMS;;;0.208;3.9;ICPMS;;;2.2;;;;;;;;;;;;;;;;;1.82;ICPMS;;;;2.9;ICPMS;;;;0.77;ICPMS;;;;;;;;;;;;;;;;;;;;;;;;;;;;;;;;;;;;;;;;;;;;;;;;;;;;;;;;;;;;;;;;;;;;;;;;;;;;;;;;;;;;;;;;;;;;;;;;;;
1996;[1199] WOODHEAD J. D. (1996);samp. M10ACIDWASHED;36272;AUSTRAL-COOK ISLANDS / MANGAIA;VAU ROA STREAM VALLEY;-21.93;-157.93;-21.93;-157.93;;;OUTCROP;;;SUBAERIAL;VOLCANIC ROCK;ANKARAMITE;PORPHYRITIC;;;;;;;;;WHOLE ROCK;;;;;;;;;;;;;;43.32;1.94;8.12;;;;14.42;;;;12.9;15.74;0.22;;;;;;0.49;XRF;;;1.53;XRF;;;0.24;;;;;;;;;;7.43;;;;;;;;;;;;;;;;;;;;;;;;;;;;;;;;;;;;;;;42;ICPMS;;;;;;275;ICPMS;;;916;ICPMS;;;;;104;ICPMS;;;;;570;ICPMS;;;;;170;ICPMS;;;116;ICPMS;;;16;ICPMS;;;;;;17.4;ICPMS;;;487;ICPMS;;;24.5;ICPMS;;;170;ICPMS;;;43.2;ICPMS;;;;;;;;;;;0.792;402;ICPMS;;;27.9;ICPMS;;;58.7;ICPMS;;;6.93;ICPMS;;;29.7;ICPMS;;;6.14;ICPMS;;;1.84;ICPMS;;;5.57;0.847;ICPMS;;;4.33;0.806;2.04;0.267;1.6;ICPMS;;;0.226;3.9;ICPMS;;;2.4;;;;;;;;;;;;;;;;;1.98;ICPMS;;;;3.3;ICPMS;;;;0.91;ICPMS;;;;;;;;;;;;;;;;;;;;;;;;;;;;;;;;;;;;;;;;;;;;;;;;;;;;;;;;;;;;;;;;;;;;;;;;;;;;;;;;;;;;;;;;;;;;;;;;;;
1996;[1199] WOODHEAD J. D. (1996);samp. M11ACIDWASHED;36273;AUSTRAL-COOK ISLANDS / MANGAIA;ROADCUT SOUTH OF THE ISLAND;-21.93;-157.93;-21.93;-157.93;;;OUTCROP;;;SUBAERIAL;VOLCANIC ROCK;ANKARAMITE;PORPHYRITIC;;;;;;;;;WHOLE ROCK;;;;;;;;;;;;;;43.85;2.7;10.39;;;;14.6;;;;12.83;12.86;0.19;;;;;;0.37;XRF;;;1.85;XRF;;;0.37;;;;;;;;;;1.59;;;;;;;;;;;;;;;;;;;;;;;;;;;;;;;;;;;;;;;46;ICPMS;;;;;;287;ICPMS;;;977;ICPMS;;;;;78;ICPMS;;;;;348;ICPMS;;;;;191;ICPMS;;;118;ICPMS;;;19;ICPMS;;;;;;9.8;ICPMS;;;449;ICPMS;;;28.3;ICPMS;;;206;ICPMS;;;50.4;ICPMS;;;;;;;;;;;0.099;603;ICPMS;;;34.2;ICPMS;;;71.2;ICPMS;;;8.45;ICPMS;;;36;ICPMS;;;7.47;ICPMS;;;2.17;ICPMS;;;6.52;1.004;ICPMS;;;5.08;0.932;2.31;0.29;1.82;ICPMS;;;0.259;4.9;ICPMS;;;2.9;;;;;;;;;;;;;;;;;2.27;ICPMS;;;;3.8;ICPMS;;;;1.04;ICPMS;;;;;;;;;;;;;;;;;;;;;;;;;;;;;;;;;;;;;;;;;;;;;;;;;;;;;;;;;;;;;;;;;;;;;;;;;;;;;;;;;;;;;;;;;;;;;;;;;;
1996;[1199] WOODHEAD J. D. (1996);samp. M12ACIDWASHED;36274;AUSTRAL-COOK ISLANDS / MANGAIA;VAU ROA STREAM VALLEY;-21.93;-157.93;-21.93;-157.93;;;OUTCROP;;;SUBAERIAL;VOLCANIC ROCK;ANKARAMITE;PORPHYRITIC;;;;;;;;;WHOLE ROCK;;;;;;;;;;;;;;44.01;2.12;8.86;;;;14.77;;;;13.49;14.18;0.21;;;;;;0.53;XRF;;;1.58;XRF;;;0.26;;;;;;;;;;7.72;;;;;;;;;;;;;;;;;;;;;;;;;;;;;;;;;;;;;;;40;ICPMS;;;;;;246;ICPMS;;;894;ICPMS;;;;;85;ICPMS;;;;;440;ICPMS;;;;;162;ICPMS;;;102;ICPMS;;;15;ICPMS;;;;;;16.3;ICPMS;;;404;ICPMS;;;75.1;ICPMS;;;156;ICPMS;;;39.5;ICPMS;;;;;;;;;;;0.609;336;ICPMS;;;26;ICPMS;;;54.5;ICPMS;;;6.45;ICPMS;;;27.8;ICPMS;;;5.71;ICPMS;;;1.74;ICPMS;;;5.85;0.882;ICPMS;;;4.58;0.943;2.33;0.26;1.52;ICPMS;;;0.218;3.6;ICPMS;;;2.2;;;;;;;;;;;;;;;;;1.79;ICPMS;;;;3;ICPMS;;;;0.8;ICPMS;;;;;;;;;;;;;;;;;;;;;;;;;;;;;;;;;;;;;;;;;;;;;;;;;;;;;;;;;;;;;;;;;;;;;;;;;;;;;;;;;;;;;;;;;;;;;;;;;;
1996;[1199] WOODHEAD J. D. (1996);samp. M13ACIDWASHED;36275;AUSTRAL-COOK ISLANDS / MANGAIA;VAU ROA STREAM VALLEY;-21.93;-157.93;-21.93;-157.93;;;OUTCROP;;;SUBAERIAL;VOLCANIC ROCK;ANKARAMITE;PORPHYRITIC;;;;;;;;;WHOLE ROCK;;;;;;;;;;;;;;43.82;2.5;10.5;;;;14.21;;;;13.35;12.28;0.2;;;;;;0.62;XRF;;;2.23;XRF;;;0.31;;;;;;;;;;3.09;;;;;;;;;;;;;;;;;;;;;;;;;;;;;;;;;;;;;;;42;ICPMS;;;;;;272;ICPMS;;;858;ICPMS;;;;;74;ICPMS;;;;;313;ICPMS;;;;;139;ICPMS;;;109;ICPMS;;;18;ICPMS;;;;;;15;ICPMS;;;441;ICPMS;;;25.9;ICPMS;;;182;ICPMS;;;48.6;ICPMS;;;;;;;;;;;0.136;206;ICPMS;;;30.6;ICPMS;;;64.3;ICPMS;;;7.56;ICPMS;;;32.7;ICPMS;;;6.83;ICPMS;;;2.09;ICPMS;;;5.92;0.919;ICPMS;;;4.68;0.849;2.16;0.261;1.67;ICPMS;;;0.24;4.2;ICPMS;;;2.6;;;;;;;;;;;;;;;;;2.02;ICPMS;;;;3.4;ICPMS;;;;0.9;ICPMS;;;;;;;;;;;;;;;;;;;;;;;;;;;;;;;;;;;;;;;;;;;;;;;;;;;;;;;;;;;;;;;;;;;;;;;;;;;;;;;;;;;;;;;;;;;;;;;;;;
1996;[1199] WOODHEAD J. D. (1996);samp. M2ACIDWASHED;36258;AUSTRAL-COOK ISLANDS / MANGAIA;VAU ROA STREAM VALLEY;-21.93;-157.93;-21.93;-157.93;;;OUTCROP;;;SUBAERIAL;VOLCANIC ROCK;ANKARAMITE;PORPHYRITIC;;;;;;;;;WHOLE ROCK;;;;;;;;;;;;;;;;;;;;;;;;;;;;;;;;;;;;;;;;;;;;;;;;;;;;;;;;;;;;;;;;;;;;;;;;;;;;;;;;;;;;;;;;;;;;;;;;;;;;;;;;;;;;;;;;;;;;;;;;;;;;;;;;;;;;;;;;;;;;;;;;;;;;;;;;;;;;;;;;;;;;;;;;;;;;;;;;;;;;;;;;;;;;;;;;;;;;;;;;;;;;;;;;;;;;;;;;;;;;;;;;;;;;;;;;;;;;;;;;;;0.512914;;;0.702744;;21.598;TIMS;;;;;15.812;TIMS;;;;40.534;TIMS;;;;;;;;;;;;;;;;;;;;;;;;;;;;;;;;;;;;;;;;;;;;;;;;;;;;;;;;;;;;;;;;;;;;;;;;;;;
1996;[1199] WOODHEAD J. D. (1996);samp. M2DUPLICATEDISSOLUTION;;AUSTRAL-COOK ISLANDS / MANGAIA;VAU ROA STREAM VALLEY;-21.93;-157.93;-21.93;-157.93;;;OUTCROP;;;SUBAERIAL;VOLCANIC ROCK;ANKARAMITE;PORPHYRITIC;;;;;;;;;WHOLE ROCK;;;;;;;;;;;;;;;;;;;;;;;;;;;;;;;;;;;;;;;;;;;;;;;;;;;;;;;;;;;;;;;;;;;;;;;;;;;;;;;;;;;;;;;;;;;;;;;;;;;;;;;;;;;;;;;;;;;;;;;;;;;;;;;;;;;;;;;;;;;;;;;;;;;;;;;;;;;;;;;;;;;;;;;;;;;;;;;;;;;;;;;;;;;;;;;;;;;;;;;;;;;;;;;;;;;;;;;;;;;;;;;;;;;;;;;;;;;;;;;;;;;;;;;21.586;TIMS;;;;;15.806;TIMS;;;;40.497;TIMS;;;;;;;;;;;;;;;;;;;;;;;;;;;;;;;;;;;;;;;;;;;;;;;;;;;;;;;;;;;;;;;;;;;;;;;;;;;
1996;[1199] WOODHEAD J. D. (1996);samp. M2UNWASHED;;AUSTRAL-COOK ISLANDS / MANGAIA;VAU ROA STREAM VALLEY;-21.93;-157.93;-21.93;-157.93;;;OUTCROP;;;SUBAERIAL;VOLCANIC ROCK;ANKARAMITE;PORPHYRITIC;;;;;;;;;WHOLE ROCK;;;;;;;;;;;;;;;;;;;;;;;;;;;;;;;;;;;;;;;;;;;;;;;;;;;;;;;;;;;;;;;;;;;;;;;;;;;;;;;;;;;;;;;;;;;;;;;;;;;;;;;;;;;;;;;;;;;;;;;;;;;;;;;;;;;;;;;;;;;;;;;;;;;;;;;;;;;;;;;;;;;;;;;;;;;;;;;;;;;;;;;;;;;;;;;;;;;;;;;;;;;;;;;;;;;;;;;;;;;;;;;;;;;;;;;;;;;;;;;;;;;;;;;21.616;TIMS;;;;;15.821;TIMS;;;;40.569;TIMS;;;;;;;;;;;;;;;;;;;;;;;;;;;;;;;;;;;;;;;;;;;;;;;;;;;;;;;;;;;;;;;;;;;;;;;;;;;
1996;[1199] WOODHEAD J. D. (1996);samp. M4ACID WASHED;36263;AUSTRAL-COOK ISLANDS / MANGAIA;VAU ROA STREAM VALLEY;-21.93;-157.93;-21.93;-157.93;;;OUTCROP;;;SUBAERIAL;VOLCANIC ROCK;ANKARAMITE;PORPHYRITIC;;;;;;;;;WHOLE ROCK;;;;;;;;;;;;;;;;;;;;;;;;;;;;;;;;;;;;;;;;;;;;;;;;;;;;;;;;;;;;;;;;;;;;;;;;;;;;;;;;;;;;;;;;;;;;;;;;;;;;;;;;;;;;;;;;;;;;;;;;;;;;;;;;;;;;;;;;;;;;;;;;;;;;;;;;;;;;;;;;;;;;;;;;;;;;;;;;;;;;;;;;;;;;;;;;;;;;;;;;;;;;;;;;;;;;;;;;;;;;;;;;;;;;;;;;;;;;;;;;;;0.51291;;;0.702877;;21.668;TIMS;;;;;15.828;TIMS;;;;40.565;TIMS;;;;;;;;;;;;;;;;;;;;;;;;;;;;;;;;;;;;;;;;;;;;;;;;;;;;;;;;;;;;;;;;;;;;;;;;;;;
1996;[1199] WOODHEAD J. D. (1996);samp. M10ACIDWASHED;36272;AUSTRAL-COOK ISLANDS / MANGAIA;VAU ROA STREAM VALLEY;-21.93;-157.93;-21.93;-157.93;;;OUTCROP;;;SUBAERIAL;VOLCANIC ROCK;ANKARAMITE;PORPHYRITIC;;;;;;;;;WHOLE ROCK;;;;;;;;;;;;;;;;;;;;;;;;;;;;;;;;;;;;;;;;;;;;;;;;;;;;;;;;;;;;;;;;;;;;;;;;;;;;;;;;;;;;;;;;;;;;;;;;;;;;;;;;;;;;;;;;;;;;;;;;;;;;;;;;;;;;;;;;;;;;;;;;;;;;;;;;;;;;;;;;;;;;;;;;;;;;;;;;;;;;;;;;;;;;;;;;;;;;;;;;;;;;;;;;;;;;;;;;;;;;;;;;;;;;;;;;;;;;;;;;;;0.512892;;;0.702946;;21.718;TIMS;;;;;15.837;TIMS;;;;40.583;TIMS;;;;;;;;;;;;;;;;;;;;;;;;;;;;;;;;;;;;;;;;;;;;;;;;;;;;;;;;;;;;;;;;;;;;;;;;;;;
1996;[1199] WOODHEAD J. D. (1996);samp. M11ACIDWASHED;36273;AUSTRAL-COOK ISLANDS / MANGAIA;ROADCUT SOUTH OF THE ISLAND;-21.93;-157.93;-21.93;-157.93;;;OUTCROP;;;SUBAERIAL;VOLCANIC ROCK;ANKARAMITE;PORPHYRITIC;;;;;;;;;WHOLE ROCK;;;;;;;;;;;;;;;;;;;;;;;;;;;;;;;;;;;;;;;;;;;;;;;;;;;;;;;;;;;;;;;;;;;;;;;;;;;;;;;;;;;;;;;;;;;;;;;;;;;;;;;;;;;;;;;;;;;;;;;;;;;;;;;;;;;;;;;;;;;;;;;;;;;;;;;;;;;;;;;;;;;;;;;;;;;;;;;;;;;;;;;;;;;;;;;;;;;;;;;;;;;;;;;;;;;;;;;;;;;;;;;;;;;;;;;;;;;;;;;;;;0.512904;;;0.702847;;21.622;TIMS;;;;;15.819;TIMS;;;;40.546;TIMS;;;;;;;;;;;;;;;;;;;;;;;;;;;;;;;;;;;;;;;;;;;;;;;;;;;;;;;;;;;;;;;;;;;;;;;;;;;
1996;[1199] WOODHEAD J. D. (1996);samp. M12ACIDWASHED;36274;AUSTRAL-COOK ISLANDS / MANGAIA;VAU ROA STREAM VALLEY;-21.93;-157.93;-21.93;-157.93;;;OUTCROP;;;SUBAERIAL;VOLCANIC ROCK;ANKARAMITE;PORPHYRITIC;;;;;;;;;WHOLE ROCK;;;;;;;;;;;;;;;;;;;;;;;;;;;;;;;;;;;;;;;;;;;;;;;;;;;;;;;;;;;;;;;;;;;;;;;;;;;;;;;;;;;;;;;;;;;;;;;;;;;;;;;;;;;;;;;;;;;;;;;;;;;;;;;;;;;;;;;;;;;;;;;;;;;;;;;;;;;;;;;;;;;;;;;;;;;;;;;;;;;;;;;;;;;;;;;;;;;;;;;;;;;;;;;;;;;;;;;;;;;;;;;;;;;;;;;;;;;;;;;;;;0.512901;;;0.702882;;21.708;TIMS;;;;;15.831;TIMS;;;;40.561;TIMS;;;;;;;;;;;;;;;;;;;;;;;;;;;;;;;;;;;;;;;;;;;;;;;;;;;;;;;;;;;;;;;;;;;;;;;;;;;
1996;[1199] WOODHEAD J. D. (1996);samp. M13ACIDWASHED;36275;AUSTRAL-COOK ISLANDS / MANGAIA;VAU ROA STREAM VALLEY;-21.93;-157.93;-21.93;-157.93;;;OUTCROP;;;SUBAERIAL;VOLCANIC ROCK;ANKARAMITE;PORPHYRITIC;;;;;;;;;WHOLE ROCK;;;;;;;;;;;;;;;;;;;;;;;;;;;;;;;;;;;;;;;;;;;;;;;;;;;;;;;;;;;;;;;;;;;;;;;;;;;;;;;;;;;;;;;;;;;;;;;;;;;;;;;;;;;;;;;;;;;;;;;;;;;;;;;;;;;;;;;;;;;;;;;;;;;;;;;;;;;;;;;;;;;;;;;;;;;;;;;;;;;;;;;;;;;;;;;;;;;;;;;;;;;;;;;;;;;;;;;;;;;;;;;;;;;;;;;;;;;;;;;;;;0.512901;;;0.702855;;21.666;TIMS;;;;;15.817;TIMS;;;;40.539;TIMS;;;;;;;;;;;;;;;;;;;;;;;;;;;;;;;;;;;;;;;;;;;;;;;;;;;;;;;;;;;;;;;;;;;;;;;;;;;
1996;[1199] WOODHEAD J. D. (1996);samp. M13UNWASHED;36276;AUSTRAL-COOK ISLANDS / MANGAIA;VAU ROA STREAM VALLEY;-21.93;-157.93;-21.93;-157.93;;;OUTCROP;;;SUBAERIAL;VOLCANIC ROCK;ANKARAMITE;PORPHYRITIC;;;;;;;;;WHOLE ROCK;;;;;;;;;;;;;;;;;;;;;;;;;;;;;;;;;;;;;;;;;;;;;;;;;;;;;;;;;;;;;;;;;;;;;;;;;;;;;;;;;;;;;;;;;;;;;;;;;;;;;;;;;;;;;;;;;;;;;;;;;;;;;;;;;;;;;;;;;;;;;;;;;;;;;;;;;;;;;;;;;;;;;;;;;;;;;;;;;;;;;;;;;;;;;;;;;;;;;;;;;;;;;;;;;;;;;;;;;;;;;;;;;;;;;;;;;;;;;;;;;;;;;;;21.674;TIMS;;;;;15.82;TIMS;;;;40.563;TIMS;;;;;;;;;;;;;;;;;;;;;;;;;;;;;;;;;;;;;;;;;;;;;;;;;;;;;;;;;;;;;;;;;;;;;;;;;;;
1998;[1209] STECHER O. (1998);samp. JAN-12;6956;JAN MAYEN / JAN MAYEN;;71;-8.5;71;-8.5;;;OUTCROP;;;SUBAERIAL;VOLCANIC ROCK;ANKARAMITE;;;;;;;;;;WHOLE ROCK;;;;;;;;;;;;;;48.55;;;;;;;;;;;;;;;;;;0.76;NOT;;;;;;;0.24;;;;;;;;;;;;;;;;;;;;;;;;;;;;;;;;;;;313;;;;;;;;;;;;;;;;;;;;;;;;;;;;;;;;;;;;;;;;;;;;;;;;;;;;;;;;;;;;;;;;;;;;;;;;;;;;;;;;;;;;;;;;;;;;;;;;;;;;;;;;;;;;;;;;;;;;;;;;;;;;;;;;;;;;;;;;;;;;;;;;;;;;;;;;;;;;;;;;;;;;;;;;;;;;;;;;;;;;;;;;;;;;;;;;;;;;;;;;;;;;;;;;;;;;;;;;;;;;;;;;;;;;;;;;;;;;;;;;;;;;;;;;;;;;;;;;;;;
1998;[1209] STECHER O. (1998);samp. JAN-167;6957;JAN MAYEN / JAN MAYEN;;71;-8.5;71;-8.5;;;OUTCROP;;;SUBAERIAL;VOLCANIC ROCK;ANKARAMITE;;;;;;;;;;WHOLE ROCK;;;;;;;;;;;;;;47.5;;;;;;;;;;;;;;;;;;1.03;NOT;;;;;;;0.28;;;;;;;;;;;;;;;;;;;;;;;;;;;;;;;;;;;456;;;;;;;;;;;;;;;;;;;;;;;;;;;;;;;;;;;;;;;;;;;;;;;;;;;;;;;;;;;;;;;;;;;;;;;;;;;;;;;;;;;;;;;;;;;;;;;;;;;;;;;;;;;;;;;;;;;;;;;;;;;;;;;;;;;;;;;;;;;;;;;;;;;;;;;;;;;;;;;;;;;;;;;;;;;;;;;;;;;;;;;;;;;;;;;;;;;;;;;;;;;;;;;;;;;;;;;;;;;;;;;;;;;;;;;;;;;;;;;;;;;;;;;;;;;;;;;;;;;
1998;[1209] STECHER O. (1998);samp. JAN-30;6958;JAN MAYEN / JAN MAYEN;;71;-8.5;71;-8.5;;;OUTCROP;;;SUBAERIAL;VOLCANIC ROCK;ANKARAMITE;;;;;;;;;;WHOLE ROCK;;;;;;;;;;;;;;48.35;;;;;;;;;;;;;;;;;;1.52;NOT;;;;;;;0.39;;;;;;;;;;;;;;;;;;;;;;;;;;;;;;;;;;;584;;;;;;;;;;;;;;;;;;;;;;;;;;;;;;;;;;;;;;;;;;;;;;;;;;;;;;;;;;;;;;;;;;;;;;;;;;;;;;;;;;;;;;;;;;;;;;;;;;;;;;;;;;;;;;;;;;;;;;;;;;;;;;;;;;;;;;;;;;;;;;;;;;;;;;;;;;;;;;;;;;;;;;;;;;;;;;;;;;;;;;;;;;;;;;;;;;;;;;;;;;;;;;;;;;;;;;;;;;;;;;;;;;;;;;;;;;;;;;;;;;;;;;;;;;;;;;;;;;;
1998;[1209] STECHER O. (1998);samp. JAN-65;6959;JAN MAYEN / JAN MAYEN;;71;-8.5;71;-8.5;;;OUTCROP;;;SUBAERIAL;VOLCANIC ROCK;ANKARAMITE;;;;;;;;;;WHOLE ROCK;;;;;;;;;;;;;;46.5;;;;;;;;;;;;;;;;;;1.3;NOT;;;;;;;0.32;;;;;;;;;;;;;;;;;;;;;;;;;;;;;;;;;;;539;;;;;;;;;;;;;;;;;;;;;;;;;;;;;;;;;;;;;;;;;;;;;;;;;;;;;;;;;;;;;;;;;;;;;;;;;;;;;;;;;;;;;;;;;;;;;;;;;;;;;;;;;;;;;;;;;;;;;;;;;;;;;;;;;;;;;;;;;;;;;;;;;;;;;;;;;;;;;;;;;;;;;;;;;;;;;;;;;;;;;;;;;;;;;;;;;;;;;;;;;;;;;;;;;;;;;;;;;;;;;;;;;;;;;;;;;;;;;;;;;;;;;;;;;;;;;;;;;;;
1992;[1224] GRAHAM D. W. (1992);samp. CE18;6992;ST. HELENA CHAIN / ST. HELENA / NORTHEASTERN VOLCANO;SADDLE POINT;-15.95;-5.64;-15.95;-5.64;;;OUTCROP;;;SUBAERIAL;VOLCANIC ROCK;ANKARAMITE;PORPHYRITIC;;11400000;;MIOCENE;;;;;WHOLE ROCK;;;;;;;;;;;;;;46.92;3.31;14.67;;;;;;12.82;;10.66;6.33;0.2;;;;;;1.5;XRF;;;2.45;XRF;;;0.47;;;;;;;;;;;;;;;;;;;;;;;;;;;;;;;;;;;;;;;;;;;;;;;;;;;;;;;;239;XRF;;;107;XRF;;;;;48;XRF;;;;;142;XRF;;;;;98;XRF;;;;;;;;;;;;;;34;XRF;;;671;XRF;;;38;XRF;;;315;XRF;;;83;XRF;;;;;;;;;;;;464;XRF;;;;;;;;;;;;;;;;;;;;;;;;;;;;;;;;;;;;;;;;;;;;;;;;;;;;;;;;;;;;;;;;;;;;;;;;;;;;;;;;;;0.702874;;20.52;TIMS;;;;;15.735;TIMS;;;;39.89;TIMS;;;;;;;;;;;;;;;;;;;;;;;;;;;;;;;;;;;;;;;;;;;;;;;;;;;;;;;;;;;;;;;;;;;;;;;;;;;
1992;[1224] GRAHAM D. W. (1992);samp. CE18;6992;ST. HELENA CHAIN / ST. HELENA / NORTHEASTERN VOLCANO;SADDLE POINT;-15.95;-5.64;-15.95;-5.64;;;OUTCROP;;;SUBAERIAL;VOLCANIC ROCK;ANKARAMITE;PORPHYRITIC;;11400000;;MIOCENE;;;;;MINERAL / COMPONENT (INCL. GROUNDMASS);CLINOPYROXENE;CE18_1;PHENOCRYST;;0.5-1 MM;PRIMARY;;;;;;;;;;;;;;;;;;;;;;;;;;;;;;;;;;;;;;;;;;;;;;;;;;;;;;;;;;;;;;5.3E-10;MS;;;;;;;;;;;;;;;;;;;;;;;;;;;;;;;;;;;;;;;;;;;;;;;;;;;;;;;;;;;;;;;;;;;;;;;;;;;;;;;;;;;;;;;;;;;;;;;;;;;;;;;;;;;;;;;;;;;;;;;;;;;;;;;;;;;;;;;;;;;;;;;;;;;;;;;;;;;;;;;;;;;;;;;;;;;;;;;;;;;;;;;;;;;;;;;;;;;;;;;;;;;;;;;;;;;;;;;;;;;;;;;;;;;;;;;;;;;;;;;;;;;;;;;;;;;;;;;;;;;;;;;;;
1992;[1224] GRAHAM D. W. (1992);samp. CE18;6992;ST. HELENA CHAIN / ST. HELENA / NORTHEASTERN VOLCANO;SADDLE POINT;-15.95;-5.64;-15.95;-5.64;;;OUTCROP;;;SUBAERIAL;VOLCANIC ROCK;ANKARAMITE;PORPHYRITIC;;11400000;;MIOCENE;;;;;MINERAL / COMPONENT (INCL. GROUNDMASS);CLINOPYROXENE;CE18_2;PHENOCRYST;;0.5-1 MM;PRIMARY;;;;;;;;;;;;;;;;;;;;;;;;;;;;;;;;;;;;;;;;;;;;;;;;;;;;;;;;;;;;;;1.45E-08;MS;4.1E-08;MS;;;;;;;;;;;;;;;;;;;;;;;;;;;;;;;;;;;;;;;;;;;;;;;;;;;;;;;;;;;;;;;;;;;;;;;;;;;;;;;;;;;;;;;;;;;;;;;;;;;;;;;;;;;;;;;;;;;;;;;;;;;;;;;;;;;;;;;;;;;;;;;;;;;;;;;;;;;;;;;;;;;;;;;;;;;;;;;;;;;;;;;;;;;;;;;;;;;;;;;;;;;5.87;MS;4.06;MS;;;;;;;;;;;;;;;;;;;;;;;;;;;;;;;;;;;;;;;;;;;;;;;;;;;;;;;;;
1992;[1224] GRAHAM D. W. (1992);samp. CE18;6992;ST. HELENA CHAIN / ST. HELENA / NORTHEASTERN VOLCANO;SADDLE POINT;-15.95;-5.64;-15.95;-5.64;;;OUTCROP;;;SUBAERIAL;VOLCANIC ROCK;ANKARAMITE;PORPHYRITIC;;11400000;;MIOCENE;;;;;MINERAL / COMPONENT (INCL. GROUNDMASS);CLINOPYROXENE;CE18_3;PHENOCRYST;;0.8-1 MM;PRIMARY;;;;;;;;;;;;;;;;;;;;;;;;;;;;;;;;;;;;;;;;;;;;;;;;;;;;;;;;;;;;;;4.58E-08;MS;1.13E-07;MS;;;;;;;;;;;;;;;;;;;;;;;;;;;;;;;;;;;;;;;;;;;;;;;;;;;;;;;;;;;;;;;;;;;;;;;;;;;;;;;;;;;;;;;;;;;;;;;;;;;;;;;;;;;;;;;;;;;;;;;;;;;;;;;;;;;;;;;;;;;;;;;;;;;;;;;;;;;;;;;;;;;;;;;;;;;;;;;;;;;;;;;;;;;;;;;;;;;;;;;;;;;5.87;MS;1.38;MS;;;;;;;;;;;;;;;;;;;;;;;;;;;;;;;;;;;;;;;;;;;;;;;;;;;;;;;;;
1969;[1226] BAKER I. (1969);samp. 804;6392;ST. HELENA CHAIN / ST. HELENA / NORTHEASTERN VOLCANO;PROSPEROUS BAY BEACH;-15.95;-5.7;-15.95;-5.7;;;OUTCROP;;;SUBAERIAL;VOLCANIC ROCK;ANKARAMITE;;;;;;;;;;WHOLE ROCK;;;;;;;;;;;;;;44.06;2.09;11.66;;;;;1.66;;8.97;12.39;15.43;0.2;;;;;;0.52;NOT;;;1.58;NOT;;;0.32;;0.93;0.19;;;;;;;;;;;;;;;;;;;;;;;;;;;;;;;;;;;;;;;;;;;;;;;;;;;;;;;;;;;;;;;;;;;;;;;;;;;;;;;;;;;;;;;;;;;;;;;;;;;;;;;;;;;;;;;;;;;;;;;;;;;;;;;;;;;;;;;;;;;;;;;;;;;;;;;;;;;;;;;;;;;;;;;;;;;;;;;;;;;;;;;;;;;;;;;;;;;;;;;;;;;;;;;;;;;;;;;;;;;;;;;;;;;;;;;;;;;;;;;;;;;;;;;;;;;;;;;;;;;;;;;;;;;;;;;;;;;;;;;;;;;;;;;;;;;