Year;CITATION;SAMPLE NAME;UNIQUE_ID;LOCATION;LOCATION COMMENT;LATITUDE (MIN.);LONGITUDE (MIN.);LATITUDE (MAX.);LONGITUDE (MAX.);ELEVATION (MIN.);ELEVATION (MAX.);SAMPLING TECHNIQUE;DRILLING DEPTH (MIN.);DRILLING DEPTH (MAX.);LAND/SEA (SAMPLING);ROCK TYPE;ROCK NAME;ROCK TEXTURE;SAMPLE COMMENT;AGE (MIN.);AGE (MAX.);GEOLOGICAL AGE;GEOLOGICAL AGE PREFIX;ERUPTION YEAR;ALTERATION;ALTERATION TYPE;TYPE OF MATERIAL;MINERAL / COMPONENT;SPOT (MINERAL);CRYSTAL;RIM / CORE (MINERAL GRAINS);GRAIN SIZE;PRIMARY/SECONDARY;INCLUSION TYPE;SPOT (INCLUSION);MINERAL (INCLUSION);RIM / CORE (INCLUSION);HOSTMINERAL (INCLUSION);HEATING;HEATING TEMPERATURE (?C);SIO2(WT%);TIO2(WT%);AL2O3(WT%);CR2O3(WT%);V2O3(WT%);V2O5(WT%);FE2O3T(WT%);FE2O3(WT%);FEOT(WT%);FEO(WT%);CAO(WT%);MGO(WT%);MNO(WT%);BAO(WT%);SRO(WT%);NIO(WT%);ZNO(WT%);COO(WT%);K2O(WT%);;;;NA2O(WT%);;;;P2O5(WT%);H2O(WT%);H2OP(WT%);H2OM(WT%);CO2(WT%);F(WT%);CL(WT%);CL2(WT%);SO3(WT%);S(WT%);LOI(WT%);O(WT%);SI(WT%);AL(WT%);TI(WT%);FE(WT%);MG(WT%);MN(WT%);CA(WT%);K(WT%): altern. values or methods;;;;NA(WT%);CR(WT%);NI(WT%);HE(CCMSTP/G);HE3(CCMSTP/G);HE4(CCMSTP/G): altern. values or methods;;;;LI(PPM);BE(PPM);B(PPM);F(PPM);NE20(CCMSTP/G);NE22(CCMSTP/G);P(PPM);S(PPM);CL(PPM);AR36(CCMSTP/G);AR40(CCMSTP/G);AR40(MOL/G): altern. values or methods;;;;AR40(PPB);K(PPM);SC(PPM): altern. values or methods;;;;;;TI(PPM);V(PPM): altern. values or methods;;;;CR(PPM): altern. values or methods;;;;MN(PPM);FE(PPM);CO(PPM): altern. values or methods;;;;;;NI(PPM): altern. values or methods;;;;;;CU(PPM): altern. values or methods;;;;ZN(PPM): altern. values or methods;;;;GA(PPM): altern. values or methods;;;;GE(PPM);AS(PPM);KR84(CCMSTP/G);RB(PPM): altern. values or methods;;;;SR(PPM): altern. values or methods;;;;Y(PPM): altern. values or methods;;;;ZR(PPM): altern. values or methods;;;;NB(PPM): altern. values or methods;;;;MO(PPM);RU(PPB);RH(PPB);PD(PPB);IN(PPM);SN(PPM);SB(PPM);XE132(CCMSTP/G);CS(PPM);BA(PPM): altern. values or methods;;;;LA(PPM): altern. values or methods;;;;CE(PPM): altern. values or methods;;;;PR(PPM): altern. values or methods;;;;ND(PPM): altern. values or methods;;;;SM(PPM): altern. values or methods;;;;EU(PPM): altern. values or methods;;;;GD(PPM);TB(PPM): altern. values or methods;;;;DY(PPM);HO(PPM);ER(PPM);TM(PPM);YB(PPM): altern. values or methods;;;;LU(PPM);HF(PPM): altern. values or methods;;;;TA(PPM);W(PPM);RE(PPB): altern. values or methods;;;;RE(PPT);OS(PPB): altern. values or methods;;;;OS(PPT);IR(PPB);PT(PPB);AU(PPB);HG(PPB);TL(PPM);PB(PPM): altern. values or methods;;;;PB210_ACT(DPM/G);TH(PPM): altern. values or methods;;;;TH(PPB);U(PPM): altern. values or methods;;;;U(PPB);CO2(PPM);H2O(PPM);ND143_ND144;ND148_ND144;SM147_ND144;SR87_SR86;RB87_SR86;PB206_PB204: altern. values or methods;;;;PB206_PB207;PB206_PB208;PB207_PB204: altern. values or methods;;;;PB207_PB206;PB208_PB204: altern. values or methods;;;;PB208_PB206;OS187_OS186;OS187_OS188: altern. values or methods;;;;RE187_OS188: altern. values or methods;;;;HF176_HF177;HE3_HE4;HE3_HE4(R/R(A)): altern. values or methods;;;;HE4_HE3: altern. values or methods;;;;;;HE4_HE3(R/R(A)): altern. values or methods;;;;AR38_AR36;AR40_AR36;NE20_NE22;NE21_NE22;XE129_XE132;PB206_U238;PB207_U235;PB210_U238;TH232_U238;U238_PB204;D13C(VS SMOW);D17O(VS VSMOW);D18O(PER MIL);D18O(VS PDB);D18O(VS SMOW);D18O(VS VSMOW);D34S(VS CDT);D44_40CA(VS SRM915A);D56FE(VS IRMM-014);DD(VS SMOW);ALBITE(MOL%);ACMITE(MOL%);ANORTHITE(MOL%);ENSTATITE(MOL%);FAYALITE(MOL%);FORSTERITE(MOL%);FERROSILITE(MOL%);HEMATITE(MOL%);LARNITE(MOL%);ORTHOCLASE(MOL%);PSEUDOBROOKITE(MOL%);TEPHROITE(MOL%);ULVOSPINEL(MOL%);WOLLASTONITE(MOL%);AGE(KA);AGE(MA): altern. values or methods;;;;;;;;AGE_PB207_PB206(MA);AGE_PB207_U235(MA);AGE_PB206_U238(MA);
2006;[9563] KOHUT E. J. (2006);samp. D14-1;;IZU-BONIN-MARIANA ARC / CHAIFE SEAMOUNT / DREDGE D14;SOUTHERN SEAMOUNT PROVINCE;14.6617;145.0003;14.6617;145.0003;-1860;-2188;DREDGE;;;SUBAQUATIC;VOLCANIC ROCK;ANKARAMITE;;LAVA;;;;;;;;MINERAL / COMPONENT (INCL. GROUNDMASS);OLIVINE;7;PHENOCRYST;RIM;;PRIMARY;;;;;;;;37.97;0.03;0.03;0.04;;;;;11.25;;0.11;48.4;0.13;;;0.15;;;;;;;0;EMP (EPMA);;;;;;;;;;;;;;;;;;;;;;;;;;;;;;;;;;;;;;;;;;;;;;;;;;;;;;;;;;;;;;;;;;;;;;;;;;;;;;;;;;;;;;;;;;;;;;;;;;;;;;;;;;;;;;;;;;;;;;;;;;;;;;;;;;;;;;;;;;;;;;;;;;;;;;;;;;;;;;;;;;;;;;;;;;;;;;;;;;;;;;;;;;;;;;;;;;;;;;;;;;;;;;;;;;;;;;;;;;;;;;;;;;;;;;;;;;;;;;;;;;;;;;;;;;;;;;;;;;;;;;;;;;;;;;;;;;;;88.5;;;;;;;;;;;;;;;;;;;;;
2006;[9563] KOHUT E. J. (2006);samp. D14-1;;IZU-BONIN-MARIANA ARC / CHAIFE SEAMOUNT / DREDGE D14;SOUTHERN SEAMOUNT PROVINCE;14.6617;145.0003;14.6617;145.0003;-1860;-2188;DREDGE;;;SUBAQUATIC;VOLCANIC ROCK;ANKARAMITE;;LAVA;;;;;;;;MINERAL / COMPONENT (INCL. GROUNDMASS);CLINOPYROXENE;1;PHENOCRYST;CORE;;PRIMARY;;;;;;;;47.39;0.35;4.59;0.24;;;;;4.92;;22.1;15.44;0.08;;;;;;;;;;0.11;EMP (EPMA);;;;;;;;;;;;;;;;;;;;;;;;;;;;;;;;;;;;;;;;;;;;;;;;;;;;;;;;;;;;;;;;;;;;;;;;;;;;;;;;;;;;;;;;;;;;;;;;;;;;;;;;;;;;;;;;;;;;;;;;;;;;;;;;;;;;;;;;;;;;;;;;;;;;;;;;;;;;;;;;;;;;;;;;;;;;;;;;;;;;;;;;;;;;;;;;;;;;;;;;;;;;;;;;;;;;;;;;;;;;;;;;;;;;;;;;;;;;;;;;;;;;;;;;;;;;;;;;;;;;;;;;;;;;;;;;;;45.29;;;8.09;;;;;;;46.61;;;;;;;;;;;;;
2006;[9563] KOHUT E. J. (2006);samp. D14-1;;IZU-BONIN-MARIANA ARC / CHAIFE SEAMOUNT / DREDGE D14;SOUTHERN SEAMOUNT PROVINCE;14.6617;145.0003;14.6617;145.0003;-1860;-2188;DREDGE;;;SUBAQUATIC;VOLCANIC ROCK;ANKARAMITE;;LAVA;;;;;;;;MINERAL / COMPONENT (INCL. GROUNDMASS);CLINOPYROXENE;1;PHENOCRYST;INTERMEDIATE ZONE;;PRIMARY;;;;;;;;49;0.35;4.83;0.28;;;;;5.11;;21.99;14.59;0.09;;;;;;;;;;0.12;EMP (EPMA);;;;;;;;;;;;;;;;;;;;;;;;;;;;;;;;;;;;;;;;;;;;;;;;;;;;;;;;;;;;;;;;;;;;;;;;;;;;;;;;;;;;;;;;;;;;;;;;;;;;;;;;;;;;;;;;;;;;;;;;;;;;;;;;;;;;;;;;;;;;;;;;;;;;;;;;;;;;;;;;;;;;;;;;;;;;;;;;;;;;;;;;;;;;;;;;;;;;;;;;;;;;;;;;;;;;;;;;;;;;;;;;;;;;;;;;;;;;;;;;;;;;;;;;;;;;;;;;;;;;;;;;;;;;;;;;;;43.85;;;8.62;;;;;;;47.53;;;;;;;;;;;;;
2006;[9563] KOHUT E. J. (2006);samp. D14-1;;IZU-BONIN-MARIANA ARC / CHAIFE SEAMOUNT / DREDGE D14;SOUTHERN SEAMOUNT PROVINCE;14.6617;145.0003;14.6617;145.0003;-1860;-2188;DREDGE;;;SUBAQUATIC;VOLCANIC ROCK;ANKARAMITE;;LAVA;;;;;;;;MINERAL / COMPONENT (INCL. GROUNDMASS);CLINOPYROXENE;1;PHENOCRYST;RIM;;PRIMARY;;;;;;;;49.4;0.34;4.58;0.29;;;;;5.01;;22.16;15.3;0.09;;;;;;;;;;0.1;EMP (EPMA);;;;;;;;;;;;;;;;;;;;;;;;;;;;;;;;;;;;;;;;;;;;;;;;;;;;;;;;;;;;;;;;;;;;;;;;;;;;;;;;;;;;;;;;;;;;;;;;;;;;;;;;;;;;;;;;;;;;;;;;;;;;;;;;;;;;;;;;;;;;;;;;;;;;;;;;;;;;;;;;;;;;;;;;;;;;;;;;;;;;;;;;;;;;;;;;;;;;;;;;;;;;;;;;;;;;;;;;;;;;;;;;;;;;;;;;;;;;;;;;;;;;;;;;;;;;;;;;;;;;;;;;;;;;;;;;;;44.95;;;8.26;;;;;;;46.79;;;;;;;;;;;;;
2006;[9563] KOHUT E. J. (2006);samp. D14-1;;IZU-BONIN-MARIANA ARC / CHAIFE SEAMOUNT / DREDGE D14;SOUTHERN SEAMOUNT PROVINCE;14.6617;145.0003;14.6617;145.0003;-1860;-2188;DREDGE;;;SUBAQUATIC;VOLCANIC ROCK;ANKARAMITE;;LAVA;;;;;;;;MINERAL / COMPONENT (INCL. GROUNDMASS);CLINOPYROXENE;2;PHENOCRYST;CORE;;PRIMARY;;;;;;;;51.74;0.13;1.45;0.56;;;;;3.4;;21.42;18.49;0.08;;;;;;;;;;0.1;EMP (EPMA);;;;;;;;;;;;;;;;;;;;;;;;;;;;;;;;;;;;;;;;;;;;;;;;;;;;;;;;;;;;;;;;;;;;;;;;;;;;;;;;;;;;;;;;;;;;;;;;;;;;;;;;;;;;;;;;;;;;;;;;;;;;;;;;;;;;;;;;;;;;;;;;;;;;;;;;;;;;;;;;;;;;;;;;;;;;;;;;;;;;;;;;;;;;;;;;;;;;;;;;;;;;;;;;;;;;;;;;;;;;;;;;;;;;;;;;;;;;;;;;;;;;;;;;;;;;;;;;;;;;;;;;;;;;;;;;;;51.66;;;5.32;;;;;;;43.02;;;;;;;;;;;;;
2006;[9563] KOHUT E. J. (2006);samp. D14-1;;IZU-BONIN-MARIANA ARC / CHAIFE SEAMOUNT / DREDGE D14;SOUTHERN SEAMOUNT PROVINCE;14.6617;145.0003;14.6617;145.0003;-1860;-2188;DREDGE;;;SUBAQUATIC;VOLCANIC ROCK;ANKARAMITE;;LAVA;;;;;;;;MINERAL / COMPONENT (INCL. GROUNDMASS);CLINOPYROXENE;2;PHENOCRYST;INTERMEDIATE ZONE;;PRIMARY;;;;;;;;52.57;0.14;1.72;0.45;;;;;3.6;;21.06;17.07;0.08;;;;;;;;;;0.1;EMP (EPMA);;;;;;;;;;;;;;;;;;;;;;;;;;;;;;;;;;;;;;;;;;;;;;;;;;;;;;;;;;;;;;;;;;;;;;;;;;;;;;;;;;;;;;;;;;;;;;;;;;;;;;;;;;;;;;;;;;;;;;;;;;;;;;;;;;;;;;;;;;;;;;;;;;;;;;;;;;;;;;;;;;;;;;;;;;;;;;;;;;;;;;;;;;;;;;;;;;;;;;;;;;;;;;;;;;;;;;;;;;;;;;;;;;;;;;;;;;;;;;;;;;;;;;;;;;;;;;;;;;;;;;;;;;;;;;;;;;49.87;;;5.91;;;;;;;44.23;;;;;;;;;;;;;
2006;[9563] KOHUT E. J. (2006);samp. D14-1;;IZU-BONIN-MARIANA ARC / CHAIFE SEAMOUNT / DREDGE D14;SOUTHERN SEAMOUNT PROVINCE;14.6617;145.0003;14.6617;145.0003;-1860;-2188;DREDGE;;;SUBAQUATIC;VOLCANIC ROCK;ANKARAMITE;;LAVA;;;;;;;;MINERAL / COMPONENT (INCL. GROUNDMASS);CLINOPYROXENE;2;PHENOCRYST;RIM;;PRIMARY;;;;;;;;52.6;0.16;2.14;0.26;;;;;4.13;;20.67;17.46;0.09;;;;;;;;;;0.08;EMP (EPMA);;;;;;;;;;;;;;;;;;;;;;;;;;;;;;;;;;;;;;;;;;;;;;;;;;;;;;;;;;;;;;;;;;;;;;;;;;;;;;;;;;;;;;;;;;;;;;;;;;;;;;;;;;;;;;;;;;;;;;;;;;;;;;;;;;;;;;;;;;;;;;;;;;;;;;;;;;;;;;;;;;;;;;;;;;;;;;;;;;;;;;;;;;;;;;;;;;;;;;;;;;;;;;;;;;;;;;;;;;;;;;;;;;;;;;;;;;;;;;;;;;;;;;;;;;;;;;;;;;;;;;;;;;;;;;;;;;50.42;;;6.69;;;;;;;42.9;;;;;;;;;;;;;
2006;[9563] KOHUT E. J. (2006);samp. D14-1;;IZU-BONIN-MARIANA ARC / CHAIFE SEAMOUNT / DREDGE D14;SOUTHERN SEAMOUNT PROVINCE;14.6617;145.0003;14.6617;145.0003;-1860;-2188;DREDGE;;;SUBAQUATIC;VOLCANIC ROCK;ANKARAMITE;;LAVA;;;;;;;;MINERAL / COMPONENT (INCL. GROUNDMASS);CLINOPYROXENE;3;PHENOCRYST;CORE;;PRIMARY;;;;;;;;51.28;0.16;2.2;1.19;;;;;3.27;;22.03;17.65;0.07;;;;;;;;;;0.14;EMP (EPMA);;;;;;;;;;;;;;;;;;;;;;;;;;;;;;;;;;;;;;;;;;;;;;;;;;;;;;;;;;;;;;;;;;;;;;;;;;;;;;;;;;;;;;;;;;;;;;;;;;;;;;;;;;;;;;;;;;;;;;;;;;;;;;;;;;;;;;;;;;;;;;;;;;;;;;;;;;;;;;;;;;;;;;;;;;;;;;;;;;;;;;;;;;;;;;;;;;;;;;;;;;;;;;;;;;;;;;;;;;;;;;;;;;;;;;;;;;;;;;;;;;;;;;;;;;;;;;;;;;;;;;;;;;;;;;;;;;49.97;;;5.2;;;;;;;44.83;;;;;;;;;;;;;
2006;[9563] KOHUT E. J. (2006);samp. D14-1;;IZU-BONIN-MARIANA ARC / CHAIFE SEAMOUNT / DREDGE D14;SOUTHERN SEAMOUNT PROVINCE;14.6617;145.0003;14.6617;145.0003;-1860;-2188;DREDGE;;;SUBAQUATIC;VOLCANIC ROCK;ANKARAMITE;;LAVA;;;;;;;;MINERAL / COMPONENT (INCL. GROUNDMASS);CLINOPYROXENE;3;PHENOCRYST;INTERMEDIATE ZONE;;PRIMARY;;;;;;;;51.06;0.19;2.22;0.88;;;;;3.49;;21.73;17.09;0.07;;;;;;;;;;0.13;EMP (EPMA);;;;;;;;;;;;;;;;;;;;;;;;;;;;;;;;;;;;;;;;;;;;;;;;;;;;;;;;;;;;;;;;;;;;;;;;;;;;;;;;;;;;;;;;;;;;;;;;;;;;;;;;;;;;;;;;;;;;;;;;;;;;;;;;;;;;;;;;;;;;;;;;;;;;;;;;;;;;;;;;;;;;;;;;;;;;;;;;;;;;;;;;;;;;;;;;;;;;;;;;;;;;;;;;;;;;;;;;;;;;;;;;;;;;;;;;;;;;;;;;;;;;;;;;;;;;;;;;;;;;;;;;;;;;;;;;;;49.29;;;5.65;;;;;;;45.06;;;;;;;;;;;;;
2006;[9563] KOHUT E. J. (2006);samp. D14-1;;IZU-BONIN-MARIANA ARC / CHAIFE SEAMOUNT / DREDGE D14;SOUTHERN SEAMOUNT PROVINCE;14.6617;145.0003;14.6617;145.0003;-1860;-2188;DREDGE;;;SUBAQUATIC;VOLCANIC ROCK;ANKARAMITE;;LAVA;;;;;;;;MINERAL / COMPONENT (INCL. GROUNDMASS);CLINOPYROXENE;3;PHENOCRYST;RIM;;PRIMARY;;;;;;;;51.4;0.27;2.85;0.46;;;;;4.2;;21.64;15.98;0.08;;;;;;;;;;0.13;EMP (EPMA);;;;;;;;;;;;;;;;;;;;;;;;;;;;;;;;;;;;;;;;;;;;;;;;;;;;;;;;;;;;;;;;;;;;;;;;;;;;;;;;;;;;;;;;;;;;;;;;;;;;;;;;;;;;;;;;;;;;;;;;;;;;;;;;;;;;;;;;;;;;;;;;;;;;;;;;;;;;;;;;;;;;;;;;;;;;;;;;;;;;;;;;;;;;;;;;;;;;;;;;;;;;;;;;;;;;;;;;;;;;;;;;;;;;;;;;;;;;;;;;;;;;;;;;;;;;;;;;;;;;;;;;;;;;;;;;;;47.15;;;6.96;;;;;;;45.89;;;;;;;;;;;;;
2006;[9563] KOHUT E. J. (2006);samp. D14-1;;IZU-BONIN-MARIANA ARC / CHAIFE SEAMOUNT / DREDGE D14;SOUTHERN SEAMOUNT PROVINCE;14.6617;145.0003;14.6617;145.0003;-1860;-2188;DREDGE;;;SUBAQUATIC;VOLCANIC ROCK;ANKARAMITE;;LAVA;;;;;;;;MINERAL / COMPONENT (INCL. GROUNDMASS);CLINOPYROXENE;4;PHENOCRYST;CORE;;PRIMARY;;;;;;;;51.48;0.14;1.7;0.69;;;;;3.37;;21.69;18.16;0.06;;;;;;;;;;0.13;EMP (EPMA);;;;;;;;;;;;;;;;;;;;;;;;;;;;;;;;;;;;;;;;;;;;;;;;;;;;;;;;;;;;;;;;;;;;;;;;;;;;;;;;;;;;;;;;;;;;;;;;;;;;;;;;;;;;;;;;;;;;;;;;;;;;;;;;;;;;;;;;;;;;;;;;;;;;;;;;;;;;;;;;;;;;;;;;;;;;;;;;;;;;;;;;;;;;;;;;;;;;;;;;;;;;;;;;;;;;;;;;;;;;;;;;;;;;;;;;;;;;;;;;;;;;;;;;;;;;;;;;;;;;;;;;;;;;;;;;;;50.96;;;5.3;;;;;;;43.74;;;;;;;;;;;;;
2006;[9563] KOHUT E. J. (2006);samp. D14-1;;IZU-BONIN-MARIANA ARC / CHAIFE SEAMOUNT / DREDGE D14;SOUTHERN SEAMOUNT PROVINCE;14.6617;145.0003;14.6617;145.0003;-1860;-2188;DREDGE;;;SUBAQUATIC;VOLCANIC ROCK;ANKARAMITE;;LAVA;;;;;;;;MINERAL / COMPONENT (INCL. GROUNDMASS);CLINOPYROXENE;5;PHENOCRYST;CORE;;PRIMARY;;;;;;;;50.8;0.18;2.22;1.09;;;;;3.52;;21.82;17.18;0.07;;;;;;;;;;0.13;EMP (EPMA);;;;;;;;;;;;;;;;;;;;;;;;;;;;;;;;;;;;;;;;;;;;;;;;;;;;;;;;;;;;;;;;;;;;;;;;;;;;;;;;;;;;;;;;;;;;;;;;;;;;;;;;;;;;;;;;;;;;;;;;;;;;;;;;;;;;;;;;;;;;;;;;;;;;;;;;;;;;;;;;;;;;;;;;;;;;;;;;;;;;;;;;;;;;;;;;;;;;;;;;;;;;;;;;;;;;;;;;;;;;;;;;;;;;;;;;;;;;;;;;;;;;;;;;;;;;;;;;;;;;;;;;;;;;;;;;;;49.31;;;5.67;;;;;;;45.03;;;;;;;;;;;;;
2006;[9563] KOHUT E. J. (2006);samp. D14-1;;IZU-BONIN-MARIANA ARC / CHAIFE SEAMOUNT / DREDGE D14;SOUTHERN SEAMOUNT PROVINCE;14.6617;145.0003;14.6617;145.0003;-1860;-2188;DREDGE;;;SUBAQUATIC;VOLCANIC ROCK;ANKARAMITE;;LAVA;;;;;;;;MINERAL / COMPONENT (INCL. GROUNDMASS);CLINOPYROXENE;6;PHENOCRYST;CORE;;PRIMARY;;;;;;;;52.81;0.14;1.6;0.62;;;;;3.2;;22.14;17.73;0.09;;;;;;;;;;0.11;EMP (EPMA);;;;;;;;;;;;;;;;;;;;;;;;;;;;;;;;;;;;;;;;;;;;;;;;;;;;;;;;;;;;;;;;;;;;;;;;;;;;;;;;;;;;;;;;;;;;;;;;;;;;;;;;;;;;;;;;;;;;;;;;;;;;;;;;;;;;;;;;;;;;;;;;;;;;;;;;;;;;;;;;;;;;;;;;;;;;;;;;;;;;;;;;;;;;;;;;;;;;;;;;;;;;;;;;;;;;;;;;;;;;;;;;;;;;;;;;;;;;;;;;;;;;;;;;;;;;;;;;;;;;;;;;;;;;;;;;;;50.03;;;5.06;;;;;;;44.91;;;;;;;;;;;;;
2006;[9563] KOHUT E. J. (2006);samp. D14-1;;IZU-BONIN-MARIANA ARC / CHAIFE SEAMOUNT / DREDGE D14;SOUTHERN SEAMOUNT PROVINCE;14.6617;145.0003;14.6617;145.0003;-1860;-2188;DREDGE;;;SUBAQUATIC;VOLCANIC ROCK;ANKARAMITE;;LAVA;;;;;;;;MINERAL / COMPONENT (INCL. GROUNDMASS);CLINOPYROXENE;6;PHENOCRYST;INTERMEDIATE ZONE;;PRIMARY;;;;;;;;53.91;0.11;1.6;0.96;;;;;2.86;;22.22;17.08;0.05;;;;;;;;;;0.13;EMP (EPMA);;;;;;;;;;;;;;;;;;;;;;;;;;;;;;;;;;;;;;;;;;;;;;;;;;;;;;;;;;;;;;;;;;;;;;;;;;;;;;;;;;;;;;;;;;;;;;;;;;;;;;;;;;;;;;;;;;;;;;;;;;;;;;;;;;;;;;;;;;;;;;;;;;;;;;;;;;;;;;;;;;;;;;;;;;;;;;;;;;;;;;;;;;;;;;;;;;;;;;;;;;;;;;;;;;;;;;;;;;;;;;;;;;;;;;;;;;;;;;;;;;;;;;;;;;;;;;;;;;;;;;;;;;;;;;;;;;49.3;;;4.62;;;;;;;46.08;;;;;;;;;;;;;
2006;[9563] KOHUT E. J. (2006);samp. D14-1;;IZU-BONIN-MARIANA ARC / CHAIFE SEAMOUNT / DREDGE D14;SOUTHERN SEAMOUNT PROVINCE;14.6617;145.0003;14.6617;145.0003;-1860;-2188;DREDGE;;;SUBAQUATIC;VOLCANIC ROCK;ANKARAMITE;;LAVA;;;;;;;;MINERAL / COMPONENT (INCL. GROUNDMASS);CLINOPYROXENE;6;PHENOCRYST;RIM;;PRIMARY;;;;;;;;52.53;0.36;3.89;0.02;;;;;5.5;;21.44;15.36;0.13;;;;;;;;;;0.15;EMP (EPMA);;;;;;;;;;;;;;;;;;;;;;;;;;;;;;;;;;;;;;;;;;;;;;;;;;;;;;;;;;;;;;;;;;;;;;;;;;;;;;;;;;;;;;;;;;;;;;;;;;;;;;;;;;;;;;;;;;;;;;;;;;;;;;;;;;;;;;;;;;;;;;;;;;;;;;;;;;;;;;;;;;;;;;;;;;;;;;;;;;;;;;;;;;;;;;;;;;;;;;;;;;;;;;;;;;;;;;;;;;;;;;;;;;;;;;;;;;;;;;;;;;;;;;;;;;;;;;;;;;;;;;;;;;;;;;;;;;45.36;;;9.12;;;;;;;45.53;;;;;;;;;;;;;
2006;[9563] KOHUT E. J. (2006);samp. D14-1;;IZU-BONIN-MARIANA ARC / CHAIFE SEAMOUNT / DREDGE D14;SOUTHERN SEAMOUNT PROVINCE;14.6617;145.0003;14.6617;145.0003;-1860;-2188;DREDGE;;;SUBAQUATIC;VOLCANIC ROCK;ANKARAMITE;;LAVA;;;;;;;;MINERAL / COMPONENT (INCL. GROUNDMASS);CLINOPYROXENE;7;PHENOCRYST;CORE;;PRIMARY;;;;;;;;53.69;0.25;2.36;0.09;;;;;5.33;;20.06;17.83;0.13;;;;;;;;;;0.14;EMP (EPMA);;;;;;;;;;;;;;;;;;;;;;;;;;;;;;;;;;;;;;;;;;;;;;;;;;;;;;;;;;;;;;;;;;;;;;;;;;;;;;;;;;;;;;;;;;;;;;;;;;;;;;;;;;;;;;;;;;;;;;;;;;;;;;;;;;;;;;;;;;;;;;;;;;;;;;;;;;;;;;;;;;;;;;;;;;;;;;;;;;;;;;;;;;;;;;;;;;;;;;;;;;;;;;;;;;;;;;;;;;;;;;;;;;;;;;;;;;;;;;;;;;;;;;;;;;;;;;;;;;;;;;;;;;;;;;;;;;50.6;;;8.49;;;;;;;40.91;;;;;;;;;;;;;
2006;[9563] KOHUT E. J. (2006);samp. D14-1;;IZU-BONIN-MARIANA ARC / CHAIFE SEAMOUNT / DREDGE D14;SOUTHERN SEAMOUNT PROVINCE;14.6617;145.0003;14.6617;145.0003;-1860;-2188;DREDGE;;;SUBAQUATIC;VOLCANIC ROCK;ANKARAMITE;;LAVA;;;;;;;;MINERAL / COMPONENT (INCL. GROUNDMASS);CLINOPYROXENE;8;PHENOCRYST;CORE;;PRIMARY;;;;;;;;51.33;0.44;3.96;0.17;;;;;5.41;;21.2;16.39;0.12;;;;;;;;;;0.13;EMP (EPMA);;;;;;;;;;;;;;;;;;;;;;;;;;;;;;;;;;;;;;;;;;;;;;;;;;;;;;;;;;;;;;;;;;;;;;;;;;;;;;;;;;;;;;;;;;;;;;;;;;;;;;;;;;;;;;;;;;;;;;;;;;;;;;;;;;;;;;;;;;;;;;;;;;;;;;;;;;;;;;;;;;;;;;;;;;;;;;;;;;;;;;;;;;;;;;;;;;;;;;;;;;;;;;;;;;;;;;;;;;;;;;;;;;;;;;;;;;;;;;;;;;;;;;;;;;;;;;;;;;;;;;;;;;;;;;;;;;47.27;;;8.76;;;;;;;43.97;;;;;;;;;;;;;
2006;[9563] KOHUT E. J. (2006);samp. D14-1;;IZU-BONIN-MARIANA ARC / CHAIFE SEAMOUNT / DREDGE D14;SOUTHERN SEAMOUNT PROVINCE;14.6617;145.0003;14.6617;145.0003;-1860;-2188;DREDGE;;;SUBAQUATIC;VOLCANIC ROCK;ANKARAMITE;;LAVA;;;;;;;;MINERAL / COMPONENT (INCL. GROUNDMASS);CLINOPYROXENE;9;PHENOCRYST;CORE;;PRIMARY;;;;;;;;50.08;0.2;2.55;0.78;;;;;3.79;;19.33;13.9;0.06;;;;;;;;;;0.11;EMP (EPMA);;;;;;;;;;;;;;;;;;;;;;;;;;;;;;;;;;;;;;;;;;;;;;;;;;;;;;;;;;;;;;;;;;;;;;;;;;;;;;;;;;;;;;;;;;;;;;;;;;;;;;;;;;;;;;;;;;;;;;;;;;;;;;;;;;;;;;;;;;;;;;;;;;;;;;;;;;;;;;;;;;;;;;;;;;;;;;;;;;;;;;;;;;;;;;;;;;;;;;;;;;;;;;;;;;;;;;;;;;;;;;;;;;;;;;;;;;;;;;;;;;;;;;;;;;;;;;;;;;;;;;;;;;;;;;;;;;46.45;;;7.1;;;;;;;46.45;;;;;;;;;;;;;
2006;[9563] KOHUT E. J. (2006);samp. D14-1;;IZU-BONIN-MARIANA ARC / CHAIFE SEAMOUNT / DREDGE D14;SOUTHERN SEAMOUNT PROVINCE;14.6617;145.0003;14.6617;145.0003;-1860;-2188;DREDGE;;;SUBAQUATIC;VOLCANIC ROCK;ANKARAMITE;;LAVA;;;;;;;;MINERAL / COMPONENT (INCL. GROUNDMASS);CLINOPYROXENE;10;PHENOCRYST;CORE;;PRIMARY;;;;;;;;52.82;0.14;1.82;0.92;;;;;3.07;;22.16;17.41;0.06;;;;;;;;;;0.13;EMP (EPMA);;;;;;;;;;;;;;;;;;;;;;;;;;;;;;;;;;;;;;;;;;;;;;;;;;;;;;;;;;;;;;;;;;;;;;;;;;;;;;;;;;;;;;;;;;;;;;;;;;;;;;;;;;;;;;;;;;;;;;;;;;;;;;;;;;;;;;;;;;;;;;;;;;;;;;;;;;;;;;;;;;;;;;;;;;;;;;;;;;;;;;;;;;;;;;;;;;;;;;;;;;;;;;;;;;;;;;;;;;;;;;;;;;;;;;;;;;;;;;;;;;;;;;;;;;;;;;;;;;;;;;;;;;;;;;;;;;49.65;;;4.92;;;;;;;45.43;;;;;;;;;;;;;
2006;[9563] KOHUT E. J. (2006);samp. D14-1;;IZU-BONIN-MARIANA ARC / CHAIFE SEAMOUNT / DREDGE D14;SOUTHERN SEAMOUNT PROVINCE;14.6617;145.0003;14.6617;145.0003;-1860;-2188;DREDGE;;;SUBAQUATIC;VOLCANIC ROCK;ANKARAMITE;;LAVA;;;;;;;;MINERAL / COMPONENT (INCL. GROUNDMASS);CLINOPYROXENE;10;PHENOCRYST;INTERMEDIATE ZONE;;PRIMARY;;;;;;;;53;0.13;1.47;0.88;;;;;2.95;;22.31;17.61;0.09;;;;;;;;;;0.14;EMP (EPMA);;;;;;;;;;;;;;;;;;;;;;;;;;;;;;;;;;;;;;;;;;;;;;;;;;;;;;;;;;;;;;;;;;;;;;;;;;;;;;;;;;;;;;;;;;;;;;;;;;;;;;;;;;;;;;;;;;;;;;;;;;;;;;;;;;;;;;;;;;;;;;;;;;;;;;;;;;;;;;;;;;;;;;;;;;;;;;;;;;;;;;;;;;;;;;;;;;;;;;;;;;;;;;;;;;;;;;;;;;;;;;;;;;;;;;;;;;;;;;;;;;;;;;;;;;;;;;;;;;;;;;;;;;;;;;;;;;49.88;;;4.69;;;;;;;45.43;;;;;;;;;;;;;
2006;[9563] KOHUT E. J. (2006);samp. D14-1;;IZU-BONIN-MARIANA ARC / CHAIFE SEAMOUNT / DREDGE D14;SOUTHERN SEAMOUNT PROVINCE;14.6617;145.0003;14.6617;145.0003;-1860;-2188;DREDGE;;;SUBAQUATIC;VOLCANIC ROCK;ANKARAMITE;;LAVA;;;;;;;;MINERAL / COMPONENT (INCL. GROUNDMASS);CLINOPYROXENE;10;PHENOCRYST;RIM;;PRIMARY;;;;;;;;51.99;0.19;2.16;1.21;;;;;3.22;;22.26;17.5;0.05;;;;;;;;;;0.14;EMP (EPMA);;;;;;;;;;;;;;;;;;;;;;;;;;;;;;;;;;;;;;;;;;;;;;;;;;;;;;;;;;;;;;;;;;;;;;;;;;;;;;;;;;;;;;;;;;;;;;;;;;;;;;;;;;;;;;;;;;;;;;;;;;;;;;;;;;;;;;;;;;;;;;;;;;;;;;;;;;;;;;;;;;;;;;;;;;;;;;;;;;;;;;;;;;;;;;;;;;;;;;;;;;;;;;;;;;;;;;;;;;;;;;;;;;;;;;;;;;;;;;;;;;;;;;;;;;;;;;;;;;;;;;;;;;;;;;;;;;49.56;;;5.11;;;;;;;45.33;;;;;;;;;;;;;
2006;[9563] KOHUT E. J. (2006);samp. D14-1;;IZU-BONIN-MARIANA ARC / CHAIFE SEAMOUNT / DREDGE D14;SOUTHERN SEAMOUNT PROVINCE;14.6617;145.0003;14.6617;145.0003;-1860;-2188;DREDGE;;;SUBAQUATIC;VOLCANIC ROCK;ANKARAMITE;;LAVA;;;;;;;;MINERAL / COMPONENT (INCL. GROUNDMASS);CLINOPYROXENE;11;PHENOCRYST;CORE;;PRIMARY;;;;;;;;55.44;0.12;1.56;0.81;;;;;2.86;;22.16;16.19;0.07;;;;;;;;;;0.12;EMP (EPMA);;;;;;;;;;;;;;;;;;;;;;;;;;;;;;;;;;;;;;;;;;;;;;;;;;;;;;;;;;;;;;;;;;;;;;;;;;;;;;;;;;;;;;;;;;;;;;;;;;;;;;;;;;;;;;;;;;;;;;;;;;;;;;;;;;;;;;;;;;;;;;;;;;;;;;;;;;;;;;;;;;;;;;;;;;;;;;;;;;;;;;;;;;;;;;;;;;;;;;;;;;;;;;;;;;;;;;;;;;;;;;;;;;;;;;;;;;;;;;;;;;;;;;;;;;;;;;;;;;;;;;;;;;;;;;;;;;48;;;4.8;;;;;;;47.2;;;;;;;;;;;;;
2006;[9563] KOHUT E. J. (2006);samp. D14-1;;IZU-BONIN-MARIANA ARC / CHAIFE SEAMOUNT / DREDGE D14;SOUTHERN SEAMOUNT PROVINCE;14.6617;145.0003;14.6617;145.0003;-1860;-2188;DREDGE;;;SUBAQUATIC;VOLCANIC ROCK;ANKARAMITE;;LAVA;;;;;;;;MINERAL / COMPONENT (INCL. GROUNDMASS);CLINOPYROXENE;12;PHENOCRYST;CORE;;PRIMARY;;;;;;;;50.8;0.18;2.22;1.09;;;;;3.52;;21.82;17.18;0.07;;;;;;;;;;0.13;EMP (EPMA);;;;;;;;;;;;;;;;;;;;;;;;;;;;;;;;;;;;;;;;;;;;;;;;;;;;;;;;;;;;;;;;;;;;;;;;;;;;;;;;;;;;;;;;;;;;;;;;;;;;;;;;;;;;;;;;;;;;;;;;;;;;;;;;;;;;;;;;;;;;;;;;;;;;;;;;;;;;;;;;;;;;;;;;;;;;;;;;;;;;;;;;;;;;;;;;;;;;;;;;;;;;;;;;;;;;;;;;;;;;;;;;;;;;;;;;;;;;;;;;;;;;;;;;;;;;;;;;;;;;;;;;;;;;;;;;;;49.3;;;5.7;;;;;;;45;;;;;;;;;;;;;