Year;CITATION;SAMPLE NAME;UNIQUE_ID;LOCATION;LOCATION COMMENT;LATITUDE (MIN.);LONGITUDE (MIN.);LATITUDE (MAX.);LONGITUDE (MAX.);ELEVATION (MIN.);ELEVATION (MAX.);SAMPLING TECHNIQUE;DRILLING DEPTH (MIN.);DRILLING DEPTH (MAX.);LAND/SEA (SAMPLING);ROCK TYPE;ROCK NAME;ROCK TEXTURE;SAMPLE COMMENT;AGE (MIN.);AGE (MAX.);GEOLOGICAL AGE;GEOLOGICAL AGE PREFIX;ERUPTION YEAR;ALTERATION;ALTERATION TYPE;TYPE OF MATERIAL;MINERAL / COMPONENT;SPOT (MINERAL);CRYSTAL;RIM / CORE (MINERAL GRAINS);GRAIN SIZE;PRIMARY/SECONDARY;INCLUSION TYPE;SPOT (INCLUSION);MINERAL (INCLUSION);RIM / CORE (INCLUSION);HOSTMINERAL (INCLUSION);HEATING;HEATING TEMPERATURE (?C);SIO2(WT%);TIO2(WT%);AL2O3(WT%);CR2O3(WT%);V2O3(WT%);V2O5(WT%);FE2O3T(WT%);FE2O3(WT%);FEOT(WT%);FEO(WT%);CAO(WT%);MGO(WT%);MNO(WT%);BAO(WT%);SRO(WT%);NIO(WT%);ZNO(WT%);COO(WT%);K2O(WT%);;;;NA2O(WT%);;;;P2O5(WT%);H2O(WT%);H2OP(WT%);H2OM(WT%);CO2(WT%);F(WT%);CL(WT%);CL2(WT%);SO3(WT%);S(WT%);LOI(WT%);O(WT%);SI(WT%);AL(WT%);TI(WT%);FE(WT%);MG(WT%);MN(WT%);CA(WT%);K(WT%): altern. values or methods;;;;NA(WT%);CR(WT%);NI(WT%);HE(CCMSTP/G);HE3(CCMSTP/G);HE4(CCMSTP/G): altern. values or methods;;;;LI(PPM);BE(PPM);B(PPM);F(PPM);NE20(CCMSTP/G);NE22(CCMSTP/G);P(PPM);S(PPM);CL(PPM);AR36(CCMSTP/G);AR40(CCMSTP/G);AR40(MOL/G): altern. values or methods;;;;AR40(PPB);K(PPM);SC(PPM): altern. values or methods;;;;;;TI(PPM);V(PPM): altern. values or methods;;;;CR(PPM): altern. values or methods;;;;MN(PPM);FE(PPM);CO(PPM): altern. values or methods;;;;;;NI(PPM): altern. values or methods;;;;;;CU(PPM): altern. values or methods;;;;ZN(PPM): altern. values or methods;;;;GA(PPM): altern. values or methods;;;;GE(PPM);AS(PPM);KR84(CCMSTP/G);RB(PPM): altern. values or methods;;;;SR(PPM): altern. values or methods;;;;Y(PPM): altern. values or methods;;;;ZR(PPM): altern. values or methods;;;;NB(PPM): altern. values or methods;;;;MO(PPM);RU(PPB);RH(PPB);PD(PPB);IN(PPM);SN(PPM);SB(PPM);XE132(CCMSTP/G);CS(PPM);BA(PPM): altern. values or methods;;;;LA(PPM): altern. values or methods;;;;CE(PPM): altern. values or methods;;;;PR(PPM): altern. values or methods;;;;ND(PPM): altern. values or methods;;;;SM(PPM): altern. values or methods;;;;EU(PPM): altern. values or methods;;;;GD(PPM);TB(PPM): altern. values or methods;;;;DY(PPM);HO(PPM);ER(PPM);TM(PPM);YB(PPM): altern. values or methods;;;;LU(PPM);HF(PPM): altern. values or methods;;;;TA(PPM);W(PPM);RE(PPB): altern. values or methods;;;;RE(PPT);OS(PPB): altern. values or methods;;;;OS(PPT);IR(PPB);PT(PPB);AU(PPB);HG(PPB);TL(PPM);PB(PPM): altern. values or methods;;;;PB210_ACT(DPM/G);TH(PPM): altern. values or methods;;;;TH(PPB);U(PPM): altern. values or methods;;;;U(PPB);CO2(PPM);H2O(PPM);ND143_ND144;ND148_ND144;SM147_ND144;SR87_SR86;RB87_SR86;PB206_PB204: altern. values or methods;;;;PB206_PB207;PB206_PB208;PB207_PB204: altern. values or methods;;;;PB207_PB206;PB208_PB204: altern. values or methods;;;;PB208_PB206;OS187_OS186;OS187_OS188: altern. values or methods;;;;RE187_OS188: altern. values or methods;;;;HF176_HF177;HE3_HE4;HE3_HE4(R/R(A)): altern. values or methods;;;;HE4_HE3: altern. values or methods;;;;;;HE4_HE3(R/R(A)): altern. values or methods;;;;AR38_AR36;AR40_AR36;NE20_NE22;NE21_NE22;XE129_XE132;PB206_U238;PB207_U235;PB210_U238;TH232_U238;U238_PB204;D13C(VS SMOW);D17O(VS VSMOW);D18O(PER MIL);D18O(VS PDB);D18O(VS SMOW);D18O(VS VSMOW);D34S(VS CDT);D44_40CA(VS SRM915A);D56FE(VS IRMM-014);DD(VS SMOW);ALBITE(MOL%);ACMITE(MOL%);ANORTHITE(MOL%);ENSTATITE(MOL%);FAYALITE(MOL%);FORSTERITE(MOL%);FERROSILITE(MOL%);HEMATITE(MOL%);LARNITE(MOL%);ORTHOCLASE(MOL%);PSEUDOBROOKITE(MOL%);TEPHROITE(MOL%);ULVOSPINEL(MOL%);WOLLASTONITE(MOL%);AGE(KA);AGE(MA): altern. values or methods;;;;;;;;AGE_PB207_PB206(MA);AGE_PB207_U235(MA);AGE_PB206_U238(MA);
2000;[6171] MOSSMAN D. J. (2000);samp. 25857;;NEW ZEALAND / SOUTH ISLAND / SOUTHLAND / GREENHILLS COMPLEX;;-46.52;168.23;-46.55;168.25;;;OUTCROP;;;SUBAERIAL;VOLCANIC ROCK;ANKARAMITE, HORNBLENDE;;DIKE;;;;;;;;MINERAL / COMPONENT (INCL. GROUNDMASS);OLIVINE;;;;;PRIMARY;;;;;;;;41.52;0.01;0.07;0.15;;;;;;7.68;0.26;50.54;0.09;;;0.26;;;;;;;;;;;;;;;;;;;;;;;;;;;;;;;;;;;;;;;;;;;;;;;;;;;;;;;;;;;;;;;;;;;;;;;;;;;;;;;;;;;;;;;;;;;;;;;;;;;;;;;;;;;;;;;;;;;;;;;;;;;;;;;;;;;;;;;;;;;;;;;;;;;;;;;;;;;;;;;;;;;;;;;;;;;;;;;;;;;;;;;;;;;;;;;;;;;;;;;;;;;;;;;;;;;;;;;;;;;;;;;;;;;;;;;;;;;;;;;;;;;;;;;;;;;;;;;;;;;;;;;;;;;;;;;;;;;;;;;;;;;;;;;;;;;;;;;;;;;;;;;;;
2000;[6171] MOSSMAN D. J. (2000);samp. 25857;;NEW ZEALAND / SOUTH ISLAND / SOUTHLAND / GREENHILLS COMPLEX;;-46.52;168.23;-46.55;168.25;;;OUTCROP;;;SUBAERIAL;VOLCANIC ROCK;ANKARAMITE, HORNBLENDE;;DIKE;;;;;;;;MINERAL / COMPONENT (INCL. GROUNDMASS);CHROMITE;;;;;PRIMARY;;;;;;;;0.03;0.26;10.8;51.54;;;;6.42;;23.05;0.06;6.73;0.27;;;0.08;;;;;;;;;;;;;;;;;;;;;;;;;;;;;;;;;;;;;;;;;;;;;;;;;;;;;;;;;;;;;;;;;;;;;;;;;;;;;;;;;;;;;;;;;;;;;;;;;;;;;;;;;;;;;;;;;;;;;;;;;;;;;;;;;;;;;;;;;;;;;;;;;;;;;;;;;;;;;;;;;;;;;;;;;;;;;;;;;;;;;;;;;;;;;;;;;;;;;;;;;;;;;;;;;;;;;;;;;;;;;;;;;;;;;;;;;;;;;;;;;;;;;;;;;;;;;;;;;;;;;;;;;;;;;;;;;;;;;;;;;;;;;;;;;;;;;;;;;;;;;;;;;
2000;[6171] MOSSMAN D. J. (2000);samp. 30999A;;NEW ZEALAND / SOUTH ISLAND / SOUTHLAND / GREENHILLS COMPLEX;;-46.52;168.23;-46.55;168.25;;;OUTCROP;;;SUBAERIAL;VOLCANIC ROCK;ANKARAMITE;;DIKE;;;;;;;;MINERAL / COMPONENT (INCL. GROUNDMASS);OLIVINE;;;;;PRIMARY;;;;;;;;40.85;0;0;0;;;;;;13.82;0;43.73;0;;;0;;;;;;;;;;;;;;;;;;;;;;;;;;;;;;;;;;;;;;;;;;;;;;;;;;;;;;;;;;;;;;;;;;;;;;;;;;;;;;;;;;;;;;;;;;;;;;;;;;;;;;;;;;;;;;;;;;;;;;;;;;;;;;;;;;;;;;;;;;;;;;;;;;;;;;;;;;;;;;;;;;;;;;;;;;;;;;;;;;;;;;;;;;;;;;;;;;;;;;;;;;;;;;;;;;;;;;;;;;;;;;;;;;;;;;;;;;;;;;;;;;;;;;;;;;;;;;;;;;;;;;;;;;;;;;;;;;;;;;;;;;;;;;;;;;;;;;;;;;;;;;;;;
2000;[6171] MOSSMAN D. J. (2000);samp. 30999A;;NEW ZEALAND / SOUTH ISLAND / SOUTHLAND / GREENHILLS COMPLEX;;-46.52;168.23;-46.55;168.25;;;OUTCROP;;;SUBAERIAL;VOLCANIC ROCK;ANKARAMITE;;DIKE;;;;;;;;MINERAL / COMPONENT (INCL. GROUNDMASS);CHROMITE;;;;;PRIMARY;;;;;;;;1.15;0;10.77;45.17;;;;9.11;;29.22;0.13;3.31;0.5;;;0;;;;;;;;;;;;;;;;;;;;;;;;;;;;;;;;;;;;;;;;;;;;;;;;;;;;;;;;;;;;;;;;;;;;;;;;;;;;;;;;;;;;;;;;;;;;;;;;;;;;;;;;;;;;;;;;;;;;;;;;;;;;;;;;;;;;;;;;;;;;;;;;;;;;;;;;;;;;;;;;;;;;;;;;;;;;;;;;;;;;;;;;;;;;;;;;;;;;;;;;;;;;;;;;;;;;;;;;;;;;;;;;;;;;;;;;;;;;;;;;;;;;;;;;;;;;;;;;;;;;;;;;;;;;;;;;;;;;;;;;;;;;;;;;;;;;;;;;;;;;;;;;;
2000;[6171] MOSSMAN D. J. (2000);samp. 30999A;;NEW ZEALAND / SOUTH ISLAND / SOUTHLAND / GREENHILLS COMPLEX;;-46.52;168.23;-46.55;168.25;;;OUTCROP;;;SUBAERIAL;VOLCANIC ROCK;ANKARAMITE;;DIKE;;;;;;;;MINERAL / COMPONENT (INCL. GROUNDMASS);OLIVINE;;;;;PRIMARY;;;;;;;;40.25;0;0;0;;;;;;17.34;0;41.47;0;;;0;;;;;;;;;;;;;;;;;;;;;;;;;;;;;;;;;;;;;;;;;;;;;;;;;;;;;;;;;;;;;;;;;;;;;;;;;;;;;;;;;;;;;;;;;;;;;;;;;;;;;;;;;;;;;;;;;;;;;;;;;;;;;;;;;;;;;;;;;;;;;;;;;;;;;;;;;;;;;;;;;;;;;;;;;;;;;;;;;;;;;;;;;;;;;;;;;;;;;;;;;;;;;;;;;;;;;;;;;;;;;;;;;;;;;;;;;;;;;;;;;;;;;;;;;;;;;;;;;;;;;;;;;;;;;;;;;;;;;;;;;;;;;;;;;;;;;;;;;;;;;;;;;
2000;[6171] MOSSMAN D. J. (2000);samp. 30999A;;NEW ZEALAND / SOUTH ISLAND / SOUTHLAND / GREENHILLS COMPLEX;;-46.52;168.23;-46.55;168.25;;;OUTCROP;;;SUBAERIAL;VOLCANIC ROCK;ANKARAMITE;;DIKE;;;;;;;;MINERAL / COMPONENT (INCL. GROUNDMASS);CHROMITE;;;;;PRIMARY;;;;;;;;1.33;1.02;11.91;31.19;;;;19.37;;32.13;0;2.21;0.79;;;0;;;;;;;;;;;;;;;;;;;;;;;;;;;;;;;;;;;;;;;;;;;;;;;;;;;;;;;;;;;;;;;;;;;;;;;;;;;;;;;;;;;;;;;;;;;;;;;;;;;;;;;;;;;;;;;;;;;;;;;;;;;;;;;;;;;;;;;;;;;;;;;;;;;;;;;;;;;;;;;;;;;;;;;;;;;;;;;;;;;;;;;;;;;;;;;;;;;;;;;;;;;;;;;;;;;;;;;;;;;;;;;;;;;;;;;;;;;;;;;;;;;;;;;;;;;;;;;;;;;;;;;;;;;;;;;;;;;;;;;;;;;;;;;;;;;;;;;;;;;;;;;;;
2000;[6171] MOSSMAN D. J. (2000);samp. 30999B;;NEW ZEALAND / SOUTH ISLAND / SOUTHLAND / GREENHILLS COMPLEX;;-46.52;168.23;-46.55;168.25;;;OUTCROP;;;SUBAERIAL;VOLCANIC ROCK;ANKARAMITE;;DIKE;;;;;;;;MINERAL / COMPONENT (INCL. GROUNDMASS);OLIVINE;;;;;PRIMARY;;;;;;;;39.98;0;0;0;;;;;;18.17;0;41.3;0;;;0;;;;;;;;;;;;;;;;;;;;;;;;;;;;;;;;;;;;;;;;;;;;;;;;;;;;;;;;;;;;;;;;;;;;;;;;;;;;;;;;;;;;;;;;;;;;;;;;;;;;;;;;;;;;;;;;;;;;;;;;;;;;;;;;;;;;;;;;;;;;;;;;;;;;;;;;;;;;;;;;;;;;;;;;;;;;;;;;;;;;;;;;;;;;;;;;;;;;;;;;;;;;;;;;;;;;;;;;;;;;;;;;;;;;;;;;;;;;;;;;;;;;;;;;;;;;;;;;;;;;;;;;;;;;;;;;;;;;;;;;;;;;;;;;;;;;;;;;;;;;;;;;;
2000;[6171] MOSSMAN D. J. (2000);samp. 30999B;;NEW ZEALAND / SOUTH ISLAND / SOUTHLAND / GREENHILLS COMPLEX;;-46.52;168.23;-46.55;168.25;;;OUTCROP;;;SUBAERIAL;VOLCANIC ROCK;ANKARAMITE;;DIKE;;;;;;;;MINERAL / COMPONENT (INCL. GROUNDMASS);CHROMITE;;;;;PRIMARY;;;;;;;;1.18;0.6;13.4;30.6;;;;19.48;;30.77;0;2.97;0.5;;;0;;;;;;;;;;;;;;;;;;;;;;;;;;;;;;;;;;;;;;;;;;;;;;;;;;;;;;;;;;;;;;;;;;;;;;;;;;;;;;;;;;;;;;;;;;;;;;;;;;;;;;;;;;;;;;;;;;;;;;;;;;;;;;;;;;;;;;;;;;;;;;;;;;;;;;;;;;;;;;;;;;;;;;;;;;;;;;;;;;;;;;;;;;;;;;;;;;;;;;;;;;;;;;;;;;;;;;;;;;;;;;;;;;;;;;;;;;;;;;;;;;;;;;;;;;;;;;;;;;;;;;;;;;;;;;;;;;;;;;;;;;;;;;;;;;;;;;;;;;;;;;;;;
2000;[6171] MOSSMAN D. J. (2000);samp. 44996;;NEW ZEALAND / SOUTH ISLAND / SOUTHLAND / GREENHILLS COMPLEX;STEEP HEAD;-46.52;168.23;-46.52;168.23;;;OUTCROP;;;SUBAERIAL;VOLCANIC ROCK;ANKARAMITE, HORNBLENDE;;DIKE;;;PERMIAN;;;;;MINERAL / COMPONENT (INCL. GROUNDMASS);OLIVINE;;;;;PRIMARY;;;;;;;;40.27;0;0;0;;;;;;20.03;0;39.57;0.34;;;0.34;;;;;;;;;;;;;;;;;;;;;;;;;;;;;;;;;;;;;;;;;;;;;;;;;;;;;;;;;;;;;;;;;;;;;;;;;;;;;;;;;;;;;;;;;;;;;;;;;;;;;;;;;;;;;;;;;;;;;;;;;;;;;;;;;;;;;;;;;;;;;;;;;;;;;;;;;;;;;;;;;;;;;;;;;;;;;;;;;;;;;;;;;;;;;;;;;;;;;;;;;;;;;;;;;;;;;;;;;;;;;;;;;;;;;;;;;;;;;;;;;;;;;;;;;;;;;;;;;;;;;;;;;;;;;;;;;;;;;;;;;;;;;;;;;;;;;;;;;;;;;;;;;
2000;[6171] MOSSMAN D. J. (2000);samp. 44996;;NEW ZEALAND / SOUTH ISLAND / SOUTHLAND / GREENHILLS COMPLEX;STEEP HEAD;-46.52;168.23;-46.52;168.23;;;OUTCROP;;;SUBAERIAL;VOLCANIC ROCK;ANKARAMITE, HORNBLENDE;;DIKE;;;PERMIAN;;;;;MINERAL / COMPONENT (INCL. GROUNDMASS);MAGNETITE;;;;;PRIMARY;;;;;;;;;0.42;3.52;25.62;0.13;;;37.19;;29.66;0;1.06;0.42;;;0.19;;;;;;;;;;;;;;;;;;;;;;;;;;;;;;;;;;;;;;;;;;;;;;;;;;;;;;;;;;;;;;;;;;;;;;;;;;;;;;;;;;;;;;;;;;;;;;;;;;;;;;;;;;;;;;;;;;;;;;;;;;;;;;;;;;;;;;;;;;;;;;;;;;;;;;;;;;;;;;;;;;;;;;;;;;;;;;;;;;;;;;;;;;;;;;;;;;;;;;;;;;;;;;;;;;;;;;;;;;;;;;;;;;;;;;;;;;;;;;;;;;;;;;;;;;;;;;;;;;;;;;;;;;;;;;;;;;;;;;;;;;;;;;;;;;;;;;;;;;;;;;;;;
2000;[6171] MOSSMAN D. J. (2000);samp. 30999;;NEW ZEALAND / SOUTH ISLAND / SOUTHLAND / GREENHILLS COMPLEX;STEEP HEAD;-46.52;168.23;-46.52;168.23;;;OUTCROP;;;SUBAERIAL;VOLCANIC ROCK;ANKARAMITE, HORNBLENDE;;DIKE;;;PERMIAN;;;;;MINERAL / COMPONENT (INCL. GROUNDMASS);OLIVINE;;;;;PRIMARY;;;;;;;;;;;0.02;;;;;;21.8;;39.5;;;;;;;;;;;;;;;;;;;;;;;;;;;;;;;;;;;;;;;;;;;;;;;;;;;;;;;;;;;;;;;;;;;;;;;;;;;;;;;;;;;;;;;;;;;;;;;;;;;;;;;;;;;;;;;;;;;;;;;;;;;;;;;;;;;;;;;;;;;;;;;;;;;;;;;;;;;;;;;;;;;;;;;;;;;;;;;;;;;;;;;;;;;;;;;;;;;;;;;;;;;;;;;;;;;;;;;;;;;;;;;;;;;;;;;;;;;;;;;;;;;;;;;;;;;;;;;;;;;;;;;;;;;;;;;;;;;;;;;;;;;;;;;;;;;;;;;;;;;;;;;;;;;;;
2000;[6171] MOSSMAN D. J. (2000);samp. 30999;;NEW ZEALAND / SOUTH ISLAND / SOUTHLAND / GREENHILLS COMPLEX;STEEP HEAD;-46.52;168.23;-46.52;168.23;;;OUTCROP;;;SUBAERIAL;VOLCANIC ROCK;ANKARAMITE, HORNBLENDE;;DIKE;;;PERMIAN;;;;;MINERAL / COMPONENT (INCL. GROUNDMASS);MAGNETITE;;;;;PRIMARY;;;;;;;;;1.16;4.27;14.1;;;;45.56;;30.2;;0.97;0.33;;;;;;;;;;;;;;;;;;;;;;;;;;;;;;;;;;;;;;;;;;;;;;;;;;;;;;;;;;;;;;;;;;;;;;;;;;;;;;;;;;;;;;;;;;;;;;;;;;;;;;;;;;;;;;;;;;;;;;;;;;;;;;;;;;;;;;;;;;;;;;;;;;;;;;;;;;;;;;;;;;;;;;;;;;;;;;;;;;;;;;;;;;;;;;;;;;;;;;;;;;;;;;;;;;;;;;;;;;;;;;;;;;;;;;;;;;;;;;;;;;;;;;;;;;;;;;;;;;;;;;;;;;;;;;;;;;;;;;;;;;;;;;;;;;;;;;;;;;;;;;;;;;;;
2000;[6171] MOSSMAN D. J. (2000);samp. 44996;;NEW ZEALAND / SOUTH ISLAND / SOUTHLAND / GREENHILLS COMPLEX;STEEP HEAD;-46.52;168.23;-46.52;168.23;;;OUTCROP;;;SUBAERIAL;VOLCANIC ROCK;ANKARAMITE, HORNBLENDE;;DIKE;;;PERMIAN;;;;;MINERAL / COMPONENT (INCL. GROUNDMASS);OLIVINE;;;;;PRIMARY;;;;;;;;39.57;0;0;0;;;;;;22.07;0;37.02;0.19;;;0.13;;;;;;;;;;;;;;;;;;;;;;;;;;;;;;;;;;;;;;;;;;;;;;;;;;;;;;;;;;;;;;;;;;;;;;;;;;;;;;;;;;;;;;;;;;;;;;;;;;;;;;;;;;;;;;;;;;;;;;;;;;;;;;;;;;;;;;;;;;;;;;;;;;;;;;;;;;;;;;;;;;;;;;;;;;;;;;;;;;;;;;;;;;;;;;;;;;;;;;;;;;;;;;;;;;;;;;;;;;;;;;;;;;;;;;;;;;;;;;;;;;;;;;;;;;;;;;;;;;;;;;;;;;;;;;;;;;;;;;;;;;;;;;;;;;;;;;;;;;;;;;;;;
2000;[6171] MOSSMAN D. J. (2000);samp. 44996;;NEW ZEALAND / SOUTH ISLAND / SOUTHLAND / GREENHILLS COMPLEX;STEEP HEAD;-46.52;168.23;-46.52;168.23;;;OUTCROP;;;SUBAERIAL;VOLCANIC ROCK;ANKARAMITE, HORNBLENDE;;DIKE;;;PERMIAN;;;;;MINERAL / COMPONENT (INCL. GROUNDMASS);MAGNETITE;;;;;PRIMARY;;;;;;;;;0.11;2.56;8.73;0.19;;;56.24;;30.08;0;0.61;0.17;;;0.2;;;;;;;;;;;;;;;;;;;;;;;;;;;;;;;;;;;;;;;;;;;;;;;;;;;;;;;;;;;;;;;;;;;;;;;;;;;;;;;;;;;;;;;;;;;;;;;;;;;;;;;;;;;;;;;;;;;;;;;;;;;;;;;;;;;;;;;;;;;;;;;;;;;;;;;;;;;;;;;;;;;;;;;;;;;;;;;;;;;;;;;;;;;;;;;;;;;;;;;;;;;;;;;;;;;;;;;;;;;;;;;;;;;;;;;;;;;;;;;;;;;;;;;;;;;;;;;;;;;;;;;;;;;;;;;;;;;;;;;;;;;;;;;;;;;;;;;;;;;;;;;;;
2000;[6171] MOSSMAN D. J. (2000);samp. 25857;;NEW ZEALAND / SOUTH ISLAND / SOUTHLAND / GREENHILLS COMPLEX;;-46.52;168.23;-46.55;168.25;;;OUTCROP;;;SUBAERIAL;VOLCANIC ROCK;ANKARAMITE, HORNBLENDE;;DIKE;;;;;;;;MINERAL / COMPONENT (INCL. GROUNDMASS);CLINOPYROXENE;;;CORE;;PRIMARY;;;;;;;;52.3;0.33;2.6;0.43;;;;;4.67;;23.7;14.5;0.37;;;;;;;;;;0.24;EMP (EPMA);;;;;;;;;;;;;;;;;;;;;;;;;;;;;;;;;;;;;;;;;;;;;;;;;;;;;;;;;;;;;;;;;;;;;;;;;;;;;;;;;;;;;;;;;;;;;;;;;;;;;;;;;;;;;;;;;;;;;;;;;;;;;;;;;;;;;;;;;;;;;;;;;;;;;;;;;;;;;;;;;;;;;;;;;;;;;;;;;;;;;;;;;;;;;;;;;;;;;;;;;;;;;;;;;;;;;;;;;;;;;;;;;;;;;;;;;;;;;;;;;;;;;;;;;;;;;;;;;;;;;;;;;;;;;;;;;;;;;;;;;;;;;;;;;;;;;;;;;
2000;[6171] MOSSMAN D. J. (2000);samp. 25857;;NEW ZEALAND / SOUTH ISLAND / SOUTHLAND / GREENHILLS COMPLEX;;-46.52;168.23;-46.55;168.25;;;OUTCROP;;;SUBAERIAL;VOLCANIC ROCK;ANKARAMITE, HORNBLENDE;;DIKE;;;;;;;;MINERAL / COMPONENT (INCL. GROUNDMASS);CLINOPYROXENE;;;CORE;;PRIMARY;;;;;;;;51.5;0.23;2.58;0.55;;;;;6.12;;24.4;13.7;0.36;;;;;;;;;;0.22;EMP (EPMA);;;;;;;;;;;;;;;;;;;;;;;;;;;;;;;;;;;;;;;;;;;;;;;;;;;;;;;;;;;;;;;;;;;;;;;;;;;;;;;;;;;;;;;;;;;;;;;;;;;;;;;;;;;;;;;;;;;;;;;;;;;;;;;;;;;;;;;;;;;;;;;;;;;;;;;;;;;;;;;;;;;;;;;;;;;;;;;;;;;;;;;;;;;;;;;;;;;;;;;;;;;;;;;;;;;;;;;;;;;;;;;;;;;;;;;;;;;;;;;;;;;;;;;;;;;;;;;;;;;;;;;;;;;;;;;;;;;;;;;;;;;;;;;;;;;;;;;;;
2000;[6171] MOSSMAN D. J. (2000);samp. 44991;;NEW ZEALAND / SOUTH ISLAND / SOUTHLAND / GREENHILLS COMPLEX;STEEP HEAD;-46.52;168.23;-46.52;168.23;;;OUTCROP;;;SUBAERIAL;VOLCANIC ROCK;ANKARAMITE, HORNBLENDE;;DIKE;;;PERMIAN;;;;;MINERAL / COMPONENT (INCL. GROUNDMASS);CLINOPYROXENE;;;CORE;;PRIMARY;;;;;;;;55.01;0.05;0.95;0.21;;;;;3.69;;23.3;16.88;0.13;;;;;;;;;;0.24;EMP (EPMA);;;;;;;;;;;;;;;;;;;;;;;;;;;;;;;;;;;;;;;;;;;;;;;;;;;;;;;;;;;;;;;;;;;;;;;;;;;;;;;;;;;;;;;;;;;;;;;;;;;;;;;;;;;;;;;;;;;;;;;;;;;;;;;;;;;;;;;;;;;;;;;;;;;;;;;;;;;;;;;;;;;;;;;;;;;;;;;;;;;;;;;;;;;;;;;;;;;;;;;;;;;;;;;;;;;;;;;;;;;;;;;;;;;;;;;;;;;;;;;;;;;;;;;;;;;;;;;;;;;;;;;;;;;;;;;;;;;;;;;;;;;;;;;;;;;;;;;;;
2000;[6171] MOSSMAN D. J. (2000);samp. 44991;;NEW ZEALAND / SOUTH ISLAND / SOUTHLAND / GREENHILLS COMPLEX;STEEP HEAD;-46.52;168.23;-46.52;168.23;;;OUTCROP;;;SUBAERIAL;VOLCANIC ROCK;ANKARAMITE, HORNBLENDE;;DIKE;;;PERMIAN;;;;;MINERAL / COMPONENT (INCL. GROUNDMASS);CLINOPYROXENE;;;RIM;;PRIMARY;;;;;;;;53.4;0.15;2.05;0.95;;;;;4.02;;23.57;16.56;0.13;;;;;;;;;;0.16;EMP (EPMA);;;;;;;;;;;;;;;;;;;;;;;;;;;;;;;;;;;;;;;;;;;;;;;;;;;;;;;;;;;;;;;;;;;;;;;;;;;;;;;;;;;;;;;;;;;;;;;;;;;;;;;;;;;;;;;;;;;;;;;;;;;;;;;;;;;;;;;;;;;;;;;;;;;;;;;;;;;;;;;;;;;;;;;;;;;;;;;;;;;;;;;;;;;;;;;;;;;;;;;;;;;;;;;;;;;;;;;;;;;;;;;;;;;;;;;;;;;;;;;;;;;;;;;;;;;;;;;;;;;;;;;;;;;;;;;;;;;;;;;;;;;;;;;;;;;;;;;;;
2000;[6171] MOSSMAN D. J. (2000);samp. 30999A;;NEW ZEALAND / SOUTH ISLAND / SOUTHLAND / GREENHILLS COMPLEX;STEEP HEAD;-46.52;168.23;-46.52;168.23;;;OUTCROP;;;SUBAERIAL;VOLCANIC ROCK;ANKARAMITE, HORNBLENDE;;DIKE;;;PERMIAN;;;;;MINERAL / COMPONENT (INCL. GROUNDMASS);CLINOPYROXENE;;;CORE;;PRIMARY;;;;;;;;52.7;0.13;2.36;0.31;;;;;4.86;;23.1;16.7;0.09;;;;;;;;;;0.11;EMP (EPMA);;;;;;;;;;;;;;;;;;;;;;;;;;;;;;;;;;;;;;;;;;;;;;;;;;;;;;;;;;;;;;;;;;;;;;;;;;;;;;;;;;;;;;;;;;;;;;;;;;;;;;;;;;;;;;;;;;;;;;;;;;;;;;;;;;;;;;;;;;;;;;;;;;;;;;;;;;;;;;;;;;;;;;;;;;;;;;;;;;;;;;;;;;;;;;;;;;;;;;;;;;;;;;;;;;;;;;;;;;;;;;;;;;;;;;;;;;;;;;;;;;;;;;;;;;;;;;;;;;;;;;;;;;;;;;;;;;;;;;;;;;;;;;;;;;;;;;;;;
2000;[6171] MOSSMAN D. J. (2000);samp. 30999A;;NEW ZEALAND / SOUTH ISLAND / SOUTHLAND / GREENHILLS COMPLEX;STEEP HEAD;-46.52;168.23;-46.52;168.23;;;OUTCROP;;;SUBAERIAL;VOLCANIC ROCK;ANKARAMITE, HORNBLENDE;;DIKE;;;PERMIAN;;;;;MINERAL / COMPONENT (INCL. GROUNDMASS);CLINOPYROXENE;;;RIM;;PRIMARY;;;;;;;;52.8;0.12;1.1;0.04;;;;;6.47;;23.2;15.7;0.19;;;;;;;;;;0.25;EMP (EPMA);;;;;;;;;;;;;;;;;;;;;;;;;;;;;;;;;;;;;;;;;;;;;;;;;;;;;;;;;;;;;;;;;;;;;;;;;;;;;;;;;;;;;;;;;;;;;;;;;;;;;;;;;;;;;;;;;;;;;;;;;;;;;;;;;;;;;;;;;;;;;;;;;;;;;;;;;;;;;;;;;;;;;;;;;;;;;;;;;;;;;;;;;;;;;;;;;;;;;;;;;;;;;;;;;;;;;;;;;;;;;;;;;;;;;;;;;;;;;;;;;;;;;;;;;;;;;;;;;;;;;;;;;;;;;;;;;;;;;;;;;;;;;;;;;;;;;;;;;
2000;[6171] MOSSMAN D. J. (2000);samp. 44996;;NEW ZEALAND / SOUTH ISLAND / SOUTHLAND / GREENHILLS COMPLEX;STEEP HEAD;-46.52;168.23;-46.52;168.23;;;OUTCROP;;;SUBAERIAL;VOLCANIC ROCK;ANKARAMITE, HORNBLENDE;;DIKE;;;PERMIAN;;;;;MINERAL / COMPONENT (INCL. GROUNDMASS);CLINOPYROXENE;;;CORE;;PRIMARY;;;;;;;;54.55;0.23;2.22;0.24;;;;;6.23;;20.55;16.46;0.06;;;;;;;;;;0.15;EMP (EPMA);;;;;;;;;;;;;;;;;;;;;;;;;;;;;;;;;;;;;;;;;;;;;;;;;;;;;;;;;;;;;;;;;;;;;;;;;;;;;;;;;;;;;;;;;;;;;;;;;;;;;;;;;;;;;;;;;;;;;;;;;;;;;;;;;;;;;;;;;;;;;;;;;;;;;;;;;;;;;;;;;;;;;;;;;;;;;;;;;;;;;;;;;;;;;;;;;;;;;;;;;;;;;;;;;;;;;;;;;;;;;;;;;;;;;;;;;;;;;;;;;;;;;;;;;;;;;;;;;;;;;;;;;;;;;;;;;;;;;;;;;;;;;;;;;;;;;;;;;
2000;[6171] MOSSMAN D. J. (2000);samp. 44996;;NEW ZEALAND / SOUTH ISLAND / SOUTHLAND / GREENHILLS COMPLEX;STEEP HEAD;-46.52;168.23;-46.52;168.23;;;OUTCROP;;;SUBAERIAL;VOLCANIC ROCK;ANKARAMITE, HORNBLENDE;;DIKE;;;PERMIAN;;;;;MINERAL / COMPONENT (INCL. GROUNDMASS);CLINOPYROXENE;;;CORE;;PRIMARY;;;;;;;;53.95;0.25;2.03;0.33;;;;;5.93;;21.97;15.02;0.2;;;;;;;;;;0.2;EMP (EPMA);;;;;;;;;;;;;;;;;;;;;;;;;;;;;;;;;;;;;;;;;;;;;;;;;;;;;;;;;;;;;;;;;;;;;;;;;;;;;;;;;;;;;;;;;;;;;;;;;;;;;;;;;;;;;;;;;;;;;;;;;;;;;;;;;;;;;;;;;;;;;;;;;;;;;;;;;;;;;;;;;;;;;;;;;;;;;;;;;;;;;;;;;;;;;;;;;;;;;;;;;;;;;;;;;;;;;;;;;;;;;;;;;;;;;;;;;;;;;;;;;;;;;;;;;;;;;;;;;;;;;;;;;;;;;;;;;;;;;;;;;;;;;;;;;;;;;;;;;
2000;[6171] MOSSMAN D. J. (2000);samp. 25857;;NEW ZEALAND / SOUTH ISLAND / SOUTHLAND / GREENHILLS COMPLEX;;-46.52;168.23;-46.55;168.25;;;OUTCROP;;;SUBAERIAL;VOLCANIC ROCK;ANKARAMITE, HORNBLENDE;;DIKE;;;;;;;;INCLUSION;;;;;;;MINERAL INCLUSION;;AMPHIBOLE;;CLINOPYROXENE;FALSE;;50.6;0.25;8.73;0.37;;;;1.85;;4.63;13;18;0.09;;;;;;0.34;EMP (EPMA);;;1.06;EMP (EPMA);;;;;;;;;;;;;;;;;;;;;;;;;;;;;;;;;;;;;;;;;;;;;;;;;;;;;;;;;;;;;;;;;;;;;;;;;;;;;;;;;;;;;;;;;;;;;;;;;;;;;;;;;;;;;;;;;;;;;;;;;;;;;;;;;;;;;;;;;;;;;;;;;;;;;;;;;;;;;;;;;;;;;;;;;;;;;;;;;;;;;;;;;;;;;;;;;;;;;;;;;;;;;;;;;;;;;;;;;;;;;;;;;;;;;;;;;;;;;;;;;;;;;;;;;;;;;;;;;;;;;;;;;;;;;;;;;;;;;;;;;;;;;;;;;;;;;;;;;
2000;[6171] MOSSMAN D. J. (2000);samp. 25857;;NEW ZEALAND / SOUTH ISLAND / SOUTHLAND / GREENHILLS COMPLEX;;-46.52;168.23;-46.55;168.25;;;OUTCROP;;;SUBAERIAL;VOLCANIC ROCK;ANKARAMITE, HORNBLENDE;;DIKE;;;;;;;;INCLUSION;;;;;;;MINERAL INCLUSION;;AMPHIBOLE;;CLINOPYROXENE;FALSE;;51.2;0.19;7.31;0.48;;;;1.12;;4.84;13;18.3;0.07;;;;;;0.23;EMP (EPMA);;;0.89;EMP (EPMA);;;;;;;;;;;;;;;;;;;;;;;;;;;;;;;;;;;;;;;;;;;;;;;;;;;;;;;;;;;;;;;;;;;;;;;;;;;;;;;;;;;;;;;;;;;;;;;;;;;;;;;;;;;;;;;;;;;;;;;;;;;;;;;;;;;;;;;;;;;;;;;;;;;;;;;;;;;;;;;;;;;;;;;;;;;;;;;;;;;;;;;;;;;;;;;;;;;;;;;;;;;;;;;;;;;;;;;;;;;;;;;;;;;;;;;;;;;;;;;;;;;;;;;;;;;;;;;;;;;;;;;;;;;;;;;;;;;;;;;;;;;;;;;;;;;;;;;;;
2000;[6171] MOSSMAN D. J. (2000);samp. 44991;;NEW ZEALAND / SOUTH ISLAND / SOUTHLAND / GREENHILLS COMPLEX;STEEP HEAD;-46.52;168.23;-46.52;168.23;;;OUTCROP;;;SUBAERIAL;VOLCANIC ROCK;ANKARAMITE, HORNBLENDE;;DIKE;;;PERMIAN;;;;;INCLUSION;;;;;;;MINERAL INCLUSION;;AMPHIBOLE;;CLINOPYROXENE;FALSE;;46.66;0.85;10.46;0.43;;;;5.51;;2.99;12.27;17.23;0.08;;;;;;0.49;EMP (EPMA);;;1.94;EMP (EPMA);;;;;;;;;;;;;;;;;;;;;;;;;;;;;;;;;;;;;;;;;;;;;;;;;;;;;;;;;;;;;;;;;;;;;;;;;;;;;;;;;;;;;;;;;;;;;;;;;;;;;;;;;;;;;;;;;;;;;;;;;;;;;;;;;;;;;;;;;;;;;;;;;;;;;;;;;;;;;;;;;;;;;;;;;;;;;;;;;;;;;;;;;;;;;;;;;;;;;;;;;;;;;;;;;;;;;;;;;;;;;;;;;;;;;;;;;;;;;;;;;;;;;;;;;;;;;;;;;;;;;;;;;;;;;;;;;;;;;;;;;;;;;;;;;;;;;;;;;