Year;CITATION;SAMPLE NAME;UNIQUE_ID;LOCATION;LOCATION COMMENT;LATITUDE (MIN.);LONGITUDE (MIN.);LATITUDE (MAX.);LONGITUDE (MAX.);ELEVATION (MIN.);ELEVATION (MAX.);SAMPLING TECHNIQUE;DRILLING DEPTH (MIN.);DRILLING DEPTH (MAX.);LAND/SEA (SAMPLING);ROCK TYPE;ROCK NAME;ROCK TEXTURE;SAMPLE COMMENT;AGE (MIN.);AGE (MAX.);GEOLOGICAL AGE;GEOLOGICAL AGE PREFIX;ERUPTION YEAR;ALTERATION;ALTERATION TYPE;TYPE OF MATERIAL;MINERAL / COMPONENT;SPOT (MINERAL);CRYSTAL;RIM / CORE (MINERAL GRAINS);GRAIN SIZE;PRIMARY/SECONDARY;INCLUSION TYPE;SPOT (INCLUSION);MINERAL (INCLUSION);RIM / CORE (INCLUSION);HOSTMINERAL (INCLUSION);HEATING;HEATING TEMPERATURE (?C);SIO2(WT%);TIO2(WT%);AL2O3(WT%);CR2O3(WT%);V2O3(WT%);V2O5(WT%);FE2O3T(WT%);FE2O3(WT%);FEOT(WT%);FEO(WT%);CAO(WT%);MGO(WT%);MNO(WT%);BAO(WT%);SRO(WT%);NIO(WT%);ZNO(WT%);COO(WT%);K2O(WT%);;;;NA2O(WT%);;;;P2O5(WT%);H2O(WT%);H2OP(WT%);H2OM(WT%);CO2(WT%);F(WT%);CL(WT%);CL2(WT%);SO3(WT%);S(WT%);LOI(WT%);O(WT%);SI(WT%);AL(WT%);TI(WT%);FE(WT%);MG(WT%);MN(WT%);CA(WT%);K(WT%): altern. values or methods;;;;NA(WT%);CR(WT%);NI(WT%);HE(CCMSTP/G);HE3(CCMSTP/G);HE4(CCMSTP/G): altern. values or methods;;;;LI(PPM);BE(PPM);B(PPM);F(PPM);NE20(CCMSTP/G);NE22(CCMSTP/G);P(PPM);S(PPM);CL(PPM);AR36(CCMSTP/G);AR40(CCMSTP/G);AR40(MOL/G): altern. values or methods;;;;AR40(PPB);K(PPM);SC(PPM): altern. values or methods;;;;;;TI(PPM);V(PPM): altern. values or methods;;;;CR(PPM): altern. values or methods;;;;MN(PPM);FE(PPM);CO(PPM): altern. values or methods;;;;;;NI(PPM): altern. values or methods;;;;;;CU(PPM): altern. values or methods;;;;ZN(PPM): altern. values or methods;;;;GA(PPM): altern. values or methods;;;;GE(PPM);AS(PPM);KR84(CCMSTP/G);RB(PPM): altern. values or methods;;;;SR(PPM): altern. values or methods;;;;Y(PPM): altern. values or methods;;;;ZR(PPM): altern. values or methods;;;;NB(PPM): altern. values or methods;;;;MO(PPM);RU(PPB);RH(PPB);PD(PPB);IN(PPM);SN(PPM);SB(PPM);XE132(CCMSTP/G);CS(PPM);BA(PPM): altern. values or methods;;;;LA(PPM): altern. values or methods;;;;CE(PPM): altern. values or methods;;;;PR(PPM): altern. values or methods;;;;ND(PPM): altern. values or methods;;;;SM(PPM): altern. values or methods;;;;EU(PPM): altern. values or methods;;;;GD(PPM);TB(PPM): altern. values or methods;;;;DY(PPM);HO(PPM);ER(PPM);TM(PPM);YB(PPM): altern. values or methods;;;;LU(PPM);HF(PPM): altern. values or methods;;;;TA(PPM);W(PPM);RE(PPB): altern. values or methods;;;;RE(PPT);OS(PPB): altern. values or methods;;;;OS(PPT);IR(PPB);PT(PPB);AU(PPB);HG(PPB);TL(PPM);PB(PPM): altern. values or methods;;;;PB210_ACT(DPM/G);TH(PPM): altern. values or methods;;;;TH(PPB);U(PPM): altern. values or methods;;;;U(PPB);CO2(PPM);H2O(PPM);ND143_ND144;ND148_ND144;SM147_ND144;SR87_SR86;RB87_SR86;PB206_PB204: altern. values or methods;;;;PB206_PB207;PB206_PB208;PB207_PB204: altern. values or methods;;;;PB207_PB206;PB208_PB204: altern. values or methods;;;;PB208_PB206;OS187_OS186;OS187_OS188: altern. values or methods;;;;RE187_OS188: altern. values or methods;;;;HF176_HF177;HE3_HE4;HE3_HE4(R/R(A)): altern. values or methods;;;;HE4_HE3: altern. values or methods;;;;;;HE4_HE3(R/R(A)): altern. values or methods;;;;AR38_AR36;AR40_AR36;NE20_NE22;NE21_NE22;XE129_XE132;PB206_U238;PB207_U235;PB210_U238;TH232_U238;U238_PB204;D13C(VS SMOW);D17O(VS VSMOW);D18O(PER MIL);D18O(VS PDB);D18O(VS SMOW);D18O(VS VSMOW);D34S(VS CDT);D44_40CA(VS SRM915A);D56FE(VS IRMM-014);DD(VS SMOW);ALBITE(MOL%);ACMITE(MOL%);ANORTHITE(MOL%);ENSTATITE(MOL%);FAYALITE(MOL%);FORSTERITE(MOL%);FERROSILITE(MOL%);HEMATITE(MOL%);LARNITE(MOL%);ORTHOCLASE(MOL%);PSEUDOBROOKITE(MOL%);TEPHROITE(MOL%);ULVOSPINEL(MOL%);WOLLASTONITE(MOL%);AGE(KA);AGE(MA): altern. values or methods;;;;;;;;AGE_PB207_PB206(MA);AGE_PB207_U235(MA);AGE_PB206_U238(MA);
1970;[1731] SCHNETZLER C. C. (1970);samp. HHP-66-19;34956;HAWAIIAN ISLANDS / HAWAII;;19.5;-155.5;19.5;-155.5;;;OUTCROP;;;SUBAERIAL;VOLCANIC ROCK;ANKARAMITE;;OCEANITIC;;;;;;;;MINERAL / COMPONENT (INCL. GROUNDMASS);CLINOPYROXENE;;PHENOCRYST;CORE;;PRIMARY;;;;;;;;;;;;;;;;;;;;;;;;;;;;;;;;;;;;;;;;;;;;;;;;;;;;;;;;;;;;;;;;;;;;;;;;;;;;;;;;;;;;;;;;;;;;;;;;;;;;;;;;;;;;;;;;;;;;;;;;;;;;;;;;;;;;;;;;;;;;;;;;;;;;;;;;;;;;;;;;;;;;4.64;MS_ID;;;;;;;6.05;MS_ID;;;2.12;MS_ID;;;0.669;MS_ID;;;;;;;;2.01;;0.881;;0.603;MS_ID;;;;;;;;;;;;;;;;;;;;;;;;;;;;;;;;;;;;;;;;;;;;;;;;;;;;;;;;;;;;;;;;;;;;;;;;;;;;;;;;;;;;;;;;;;;;;;;;;;;;;;;;;;;;;;;;;;;;;;;;;;;;;;;;;;;;;;
1970;[1731] SCHNETZLER C. C. (1970);samp. HHP-66-19;34956;HAWAIIAN ISLANDS / HAWAII;;19.5;-155.5;19.5;-155.5;;;OUTCROP;;;SUBAERIAL;VOLCANIC ROCK;ANKARAMITE;;OCEANITIC;;;;;;;;MINERAL / COMPONENT (INCL. GROUNDMASS);OLIVINE;;PHENOCRYST;;;PRIMARY;;;;;;;;;;;;;;;;;;;;;;;;;;;;;;;;;;;;;;;;;;;;;;;;;;;;;;;;;;;;;;;;;;;;;;;;;;;;;;;;;;;;;;;;;;;;;;;;;;;;;;;;;;;;;;;;;;;;;;;;;;;;;;;;;;;;;;;;;;;;;;;;;;;;;;;;;;;;;;;;;;;;0.569;MS_ID;;;;;;;0.365;MS_ID;;;0.09;MS_ID;;;0.024;MS_ID;;;0.084;;;;;0.079;;0.046;;;;;;0.0094;;;;;;;;;;;;;;;;;;;;;;;;;;;;;;;;;;;;;;;;;;;;;;;;;;;;;;;;;;;;;;;;;;;;;;;;;;;;;;;;;;;;;;;;;;;;;;;;;;;;;;;;;;;;;;;;;;;;;;;;;;;;;;;;;;;
1972;[1770] TIWARI B. D. (1972);samp. 1;;DECCAN / NORTHERN DECCAN;AROUND PAVAGARH VILLAGE, PANCH MAHAL DISTRCT, GUJARAT;22.43;73.52;22.52;73.6;;;OUTCROP;;;SUBAERIAL;VOLCANIC ROCK;ANKARAMITE;PORPHYRITIC;;;;;;;;;WHOLE ROCK;;;;;;;;;;;;;;48.89;2.34;14.56;;;;;3.1;;9.04;11.2;5;0.14;;;;;;1.26;NOT;;;2.23;NOT;;;0.08;0.98;;;;;;;;;;;;;;;;;;;;;;;;;;;;;;;45;;;;;;;;;;;;;;;;;10;NOT;;;;;;45;NOT;;;350;NOT;;;;;45;NOT;;;;;250;NOT;;;;;60;NOT;;;;;;;20;NOT;;;;;;;;;;125;NOT;;;100;NOT;;;;;;;;;;;;;;;30;30;;;;250;NOT;;;;;;;;;;;;;;;;;;;;;;;;;;;;;;;;;;;;;;;;;;;;;;10;;;;;;;;;;;;;;;;40;NOT;;;;;;;;;;;;;;;;;;;;;;;;;;;;;;;;;;;;;;;;;;;;;;;;;;;;;;;;;;;;;;;;;;;;;;;;;;;;;;;;;;;;;;;;;;;;;;;;;;;;;;;;;;;;
1972;[1770] TIWARI B. D. (1972);samp. 2;;DECCAN / NORTHERN DECCAN;AROUND PAVAGARH VILLAGE, PANCH MAHAL DISTRCT, GUJARAT;22.43;73.52;22.52;73.6;;;OUTCROP;;;SUBAERIAL;VOLCANIC ROCK;ANKARAMITE;PORPHYRITIC;;;;;;;;;WHOLE ROCK;;;;;;;;;;;;;;48.58;2.08;14.11;;;;;4.8;;8.05;9.23;7.61;0.12;;;;;;0.96;NOT;;;2.75;NOT;;;0.54;0.55;;;;;;;;;;;;;;;;;;;;;;;;;;;;;;;60;;;;;;;;;;;;;;;;;;;;;;;;30;NOT;;;500;NOT;;;;;30;NOT;;;;;50;NOT;;;;;30;NOT;;;;;;;10;NOT;;;;;;;;;;100;NOT;;;40;NOT;;;;;;;;;;;;;;;10;;;;;150;NOT;;;;;;;;;;;;;;;;;;;;;;;;;;;;;;;;;;;;;;;;;;;;;;;;;;;;;;;;;;;;;;20;NOT;;;;;;;;;;;;;;;;;;;;;;;;;;;;;;;;;;;;;;;;;;;;;;;;;;;;;;;;;;;;;;;;;;;;;;;;;;;;;;;;;;;;;;;;;;;;;;;;;;;;;;;;;;;;
1972;[1770] TIWARI B. D. (1972);samp. 3;;DECCAN / NORTHERN DECCAN;AROUND PAVAGARH VILLAGE, PANCH MAHAL DISTRCT, GUJARAT;22.43;73.52;22.52;73.6;;;OUTCROP;;;SUBAERIAL;VOLCANIC ROCK;ANKARAMITE;PORPHYRITIC;;;;;;;;;WHOLE ROCK;;;;;;;;;;;;;;49.64;2.11;12.54;;;;;5.44;;7.25;9.38;7.56;0.13;;;;;;0.93;NOT;;;2.29;NOT;;;0.58;1.2;;;;;;;;;;;;;;;;;;;;;;;;;;;;;;;75;;;;;;;;;;;;;;;;;15;NOT;;;;;;60;NOT;;;450;NOT;;;;;60;NOT;;;;;250;NOT;;;;;75;NOT;;;;;;;30;NOT;;;;;;;;;;100;NOT;;;100;NOT;;;;;;;;;;;;;;;20;30;;;;200;NOT;;;;;;;;;;;;;;;;;;;;;;;;;;;;;;;;;;;;;;;;;;;;;;30;;;;;;;;;;;;;;;;30;NOT;;;;;;;;;;;;;;;;;;;;;;;;;;;;;;;;;;;;;;;;;;;;;;;;;;;;;;;;;;;;;;;;;;;;;;;;;;;;;;;;;;;;;;;;;;;;;;;;;;;;;;;;;;;;
1972;[1770] TIWARI B. D. (1972);samp. 4;;DECCAN / NORTHERN DECCAN;AROUND PAVAGARH VILLAGE, PANCH MAHAL DISTRCT, GUJARAT;22.43;73.52;22.52;73.6;;;OUTCROP;;;SUBAERIAL;VOLCANIC ROCK;ANKARAMITE;PORPHYRITIC;;;;;;;;;WHOLE ROCK;;;;;;;;;;;;;;49.15;2.07;13.3;;;;;5.4;;7.45;10.66;7.02;0.15;;;;;;1.08;NOT;;;2.08;NOT;;;0.58;1.02;;;;;;;;;;;;;;;;;;;;;;;;;;;;;;;45;;;;;;;;;;;;;;;;;60;NOT;;;;;;10;NOT;;;250;NOT;;;;;25;NOT;;;;;200;NOT;;;;;75;NOT;;;;;;;30;NOT;;;;;;;;;;250;NOT;;;150;NOT;;;;;;;;;;;;;;;10;;;;;500;NOT;;;;;;;;;;;;;;;;;;;;;;;;;;;;;;;;;;;;;;;;;;;;;;10;;;;;;;;;;;;;;;;20;NOT;;;;;;;;;;;;;;;;;;;;;;;;;;;;;;;;;;;;;;;;;;;;;;;;;;;;;;;;;;;;;;;;;;;;;;;;;;;;;;;;;;;;;;;;;;;;;;;;;;;;;;;;;;;;
1972;[1770] TIWARI B. D. (1972);samp. 5;;DECCAN / NORTHERN DECCAN;AROUND PAVAGARH VILLAGE, PANCH MAHAL DISTRCT, GUJARAT;22.43;73.52;22.52;73.6;;;OUTCROP;;;SUBAERIAL;VOLCANIC ROCK;ANKARAMITE;PORPHYRITIC;;;;;;;;;WHOLE ROCK;;;;;;;;;;;;;;49.04;2.28;14.93;;;;;6.04;;6.42;8.84;7.36;0.23;;;;;;0.93;NOT;;;2;NOT;;;0.35;0.92;;;;;;;;;;;;;;;;;;;;;;;;;;;;;;;75;;;;;;;;;;;;;;;;;45;NOT;;;;;;10;NOT;;;300;NOT;;;;;75;NOT;;;;;200;NOT;;;;;150;NOT;;;;;;;30;NOT;;;;;;;;;;200;NOT;;;150;NOT;;;;;;;;;;;;;;;;;;;;750;NOT;;;;;;;;;;;;;;;;;;;;;;;;;;;;;;;;;;;;;;;;;;;;;;30;;;;;;;;;;;;;;;;30;NOT;;;;;;;;;;;;;;;;;;;;;;;;;;;;;;;;;;;;;;;;;;;;;;;;;;;;;;;;;;;;;;;;;;;;;;;;;;;;;;;;;;;;;;;;;;;;;;;;;;;;;;;;;;;;
1972;[1770] TIWARI B. D. (1972);samp. 6;;DECCAN / NORTHERN DECCAN;AROUND PAVAGARH VILLAGE, PANCH MAHAL DISTRCT, GUJARAT;22.43;73.52;22.52;73.6;;;OUTCROP;;;SUBAERIAL;VOLCANIC ROCK;ANKARAMITE;PORPHYRITIC;;;;;;;;;WHOLE ROCK;;;;;;;;;;;;;;47;2.03;14.15;;;;;5;;8.04;9.39;7.95;0.18;;;;;;1.31;NOT;;;2.14;NOT;;;0.43;1.39;;;;;;;;;;;;;;;;;;;;;;;;;;;;;;;45;;;;;;;;;;;;;;;;;30;NOT;;;;;;15;NOT;;;200;NOT;;;;;60;NOT;;;;;150;NOT;;;;;125;NOT;;;;;;;10;NOT;;;;;;;;;;75;NOT;;;100;NOT;;;;;;;;;;;;;;;5;;;;;300;NOT;;;;;;;;;;;;;;;;;;;;;;;;;;;;;;;;;;;;;;;;;;;;;;20;;;;;;;;;;;;;;;;10;NOT;;;;;;;;;;;;;;;;;;;;;;;;;;;;;;;;;;;;;;;;;;;;;;;;;;;;;;;;;;;;;;;;;;;;;;;;;;;;;;;;;;;;;;;;;;;;;;;;;;;;;;;;;;;;
1972;[1770] TIWARI B. D. (1972);samp. 1;;DECCAN / NORTHERN DECCAN;AROUND PAVAGARH VILLAGE, PANCH MAHAL DISTRCT, GUJARAT;22.43;73.52;22.52;73.6;;;OUTCROP;;;SUBAERIAL;VOLCANIC ROCK;ANKARAMITE;PORPHYRITIC;;;;;;;;;MINERAL / COMPONENT (INCL. GROUNDMASS);PYROXENE;;;;;PRIMARY;;;;;;;;49.6;;3.54;;;;;0.99;;;22.75;17.92;;;;;;;;;;;;;;;;;;;;;;;;;;;;;;;;;;;;;;;;;;;;;;;50;;;;;;;;;;;;;;;;;75;NOT;;;;;;10;NOT;;;100;NOT;;;;;75;NOT;;;;;;;;;;;30;NOT;;;;;;;10;NOT;;;;;;;;;;100;NOT;;;;;;;;;;;;;;;;;;;30;;;;;250;NOT;;;5;NOT;;;;;;;;;;;;;;;;;;;;;;;;;;;;;;;;;;;;;;;;;;10;;;;;;;;;;;;;;;;;;;;;;;;;;;;;;;;;;;;;;;;;;;;;;;;;;;;;;;;;;;;;;;;;;;;;;;;;;;;;;;;;;;;;;;;;;;;;;;;;;;;;;;;;;;;;;;;;;;;;;;;;;;;;
1972;[1770] TIWARI B. D. (1972);samp. 2;;DECCAN / NORTHERN DECCAN;AROUND PAVAGARH VILLAGE, PANCH MAHAL DISTRCT, GUJARAT;22.43;73.52;22.52;73.6;;;OUTCROP;;;SUBAERIAL;VOLCANIC ROCK;ANKARAMITE;PORPHYRITIC;;;;;;;;;MINERAL / COMPONENT (INCL. GROUNDMASS);PYROXENE;;;;;PRIMARY;;;;;;;;47.08;;3.04;;;;;0.62;;;28.12;19.28;;;;;;;;;;;;;;;;;;;;;;;;;;;;;;;;;;;;;;;;;;;;;;;10;;;;;;;;;;;;;;;;;75;NOT;;;;;;25;NOT;;;150;NOT;;;;;100;NOT;;;;;100;NOT;;;;;100;NOT;;;;;;;45;NOT;;;;;;;;;;100;NOT;;;100;NOT;;;;;;;;;;;15;;;;75;;;;;250;NOT;;;5;NOT;;;;;;;;;;;;;;;;;;;;;;;;;;;;;;;;;;;;;;;;;;10;;;;;;;;;;;;;;;;30;NOT;;;;;;;;;;;;;;;;;;;;;;;;;;;;;;;;;;;;;;;;;;;;;;;;;;;;;;;;;;;;;;;;;;;;;;;;;;;;;;;;;;;;;;;;;;;;;;;;;;;;;;;;;;;;
1972;[1770] TIWARI B. D. (1972);samp. 3;;DECCAN / NORTHERN DECCAN;AROUND PAVAGARH VILLAGE, PANCH MAHAL DISTRCT, GUJARAT;22.43;73.52;22.52;73.6;;;OUTCROP;;;SUBAERIAL;VOLCANIC ROCK;ANKARAMITE;PORPHYRITIC;;;;;;;;;MINERAL / COMPONENT (INCL. GROUNDMASS);PYROXENE;;;;;PRIMARY;;;;;;;;49.11;;3.04;;;;;0.43;;;20.6;19.92;;;;;;;;;;;;;;;;;;;;;;;;;;;;;;;;;;;;;;;;;;;;;;;50;;;;;;;;;;;;;;;;;;;;;;;;10;NOT;;;100;NOT;;;;;100;NOT;;;;;30;NOT;;;;;100;NOT;;;;;;;10;NOT;;;;;;;;;;100;NOT;;;60;NOT;;;;;;;;;;;;;;;50;;;;;250;NOT;;;3;NOT;;;;;;;;;;;;;;;;;;;;;;;;;;;;;;;;;;;;;;;;;;15;;;;;;;;;;;;;;;;60;NOT;;;;;;;;;;;;;;;;;;;;;;;;;;;;;;;;;;;;;;;;;;;;;;;;;;;;;;;;;;;;;;;;;;;;;;;;;;;;;;;;;;;;;;;;;;;;;;;;;;;;;;;;;;;;
1972;[1770] TIWARI B. D. (1972);samp. 1;;DECCAN / NORTHERN DECCAN;AROUND PAVAGARH VILLAGE, PANCH MAHAL DISTRCT, GUJARAT;22.43;73.52;22.52;73.6;;;OUTCROP;;;SUBAERIAL;VOLCANIC ROCK;ANKARAMITE;PORPHYRITIC;;;;;;;;;MINERAL / COMPONENT (INCL. GROUNDMASS);PLAGIOCLASE;;;;;PRIMARY;;;;;;;;51.6;;15.06;;;;;;;;6.6;;;;;;;;0.4;NOT;;;1.5;NOT;;;;;;;;;;;;;;;;;;;;;;;;;;;;;;;;;;;;;;;;;;;;;;;;;;;;;;;;;;;;;;;;;;;;;;;;;;;;;;;;;35;NOT;;;;;;;60;NOT;;;;;;;;;;75;NOT;;;10;NOT;;;60;NOT;;;;;;;;;;;20;;;;;200;NOT;;;;;;;;;;;;;;;;;;;;;;;;;;;;;;;;;;;;;;;;;;;;;;;;;;;;;;;;;;;;;;40;NOT;;;;;;;;;;;;;;;;;;;;;;;;;;;;;;;;;;;;;;;;;;;;;;;;;;;;;;;;;;;;;;;;;;;;;;;;;;;;;;;;;;12.58;;32.08;;;;;;;2.22;;;;;;;;;;;;;;;;;
1972;[1770] TIWARI B. D. (1972);samp. 6;;DECCAN / NORTHERN DECCAN;AROUND PAVAGARH VILLAGE, PANCH MAHAL DISTRCT, GUJARAT;22.43;73.52;22.52;73.6;;;OUTCROP;;;SUBAERIAL;VOLCANIC ROCK;ANKARAMITE;PORPHYRITIC;;;;;;;;;MINERAL / COMPONENT (INCL. GROUNDMASS);OLIVINE;;;;;PRIMARY;;;;;;;;34.25;;;;;;;2.41;;60.59;;2.25;;;;;;;;;;;;;;;;;;;;;;;;;;;;;;;;;;;;;;;;;;;;;;;;;;;;;;;;;;;;;;;;;;;;;;;;;;;60;NOT;;;;;20;NOT;;;;;15;NOT;;;;;45;NOT;;;;;;;35;NOT;;;;;;;;;;60;NOT;;;;;;;;;;;;;;;;;;;;;;;;100;NOT;;;;;;;;;;;;;;;;;;;;;;;;;;;;;;;;;;;;;;;;;;;;;;;;;;;;;;;;;;;;;;60;NOT;;;;;;;;;;;;;;;;;;;;;;;;;;;;;;;;;;;;;;;;;;;;;;;;;;;;;;;;;;;;;;;;;;;;;;;;;;;;;;;;;;;;;;;;;;;;;;;;;;;;;;;;;;;;
1972;[1770] TIWARI B. D. (1972);samp. 1;;DECCAN / NORTHERN DECCAN;AROUND PAVAGARH VILLAGE, PANCH MAHAL DISTRCT, GUJARAT;22.43;73.52;22.52;73.6;;;OUTCROP;;;SUBAERIAL;VOLCANIC ROCK;ANKARAMITE;PORPHYRITIC;;;;;;;;;MINERAL / COMPONENT (INCL. GROUNDMASS);MAGNETITE;;;;;PRIMARY;;;;;;;;;12.25;;;;;;21.22;;19.56;;;;;;;;;;;;;;;;;;;;;;;;;;;;;;;;;;;;;;;;;;;;;;;;;;;;;;;;;;;;;;;;;;;;;;;;;40;NOT;;;;;;;;;10;NOT;;;;;100;NOT;;;;;100;NOT;;;;;;;;;;;;;;;;;;;;;;40;NOT;;;;;;;;;;;;;;;;;;;;;;;;;;;;;;;;;;;;;;;;;;;;;;;;;;;;;;;;;;;;;;;;;;;;;;;;;;;;;;;;;;;;;;;;;;;;;;;;;;;;;;;;;;;;;;;;;;;;;;;;;;;;;;;;;;;;;;;;;;;;;;;;;;;;;;;;;;;;;;;;;;;;;;;;;;;;;;;;;;;;;;;;;;;;;;;;
1979;[1815] JAKOBSSON S. P. (1979);samp. 654POR;;ICELAND / ICELAND / EYJAFJLL;SOUTHEASTERN ZONE, HVAMMSMULI;63.5;-19.5;63.5;-19.5;;;OUTCROP;;;SUBAERIAL;VOLCANIC ROCK;ANKARAMITE;PORPHYRITIC;;;;;;;;;WHOLE ROCK;;;;;;;;;;;;;;47.08;2.33;12.25;;;;;2.46;;9.4;11.4;11.7;0.19;;;;;;0.43;XRF;;;2.13;XRF;;;0.26;0.34;;;;;;;;;;;;;;;;;;;;;;;;;;;;;;;;;;;;;;;;;;;;;;;;;;;;;;;;;;;;;;;;;;;;;;;;;;;;;;;;;;;;;;;;;;;;;;;;;;;;;;;;;;;;;;;;;;;;;;;;;;;;;;;;;;;;;;;;;;;;;;;;;;;;;;;;;;;;;;;;;;;;;;;;;;;;;;;;;;;;;;;;;;;;;;;;;;;;;;;;;;;;;;;;;;;;;;;;;;;;;;;;;;;;;;;;;;;;;;;;;;;;;;;;;;;;;;;;;;;;;;;;;;;;;;;;;;;;;;;;;;;;;;;;;;;;;
1979;[1815] JAKOBSSON S. P. (1979);samp. 654NON;;ICELAND / ICELAND / EYJAFJLL;SOUTHEASTERN ZONE, HVAMMSMULI;63.5;-19.5;63.5;-19.5;;;OUTCROP;;;SUBAERIAL;VOLCANIC ROCK;ANKARAMITE;NONPORPHYRITIC;;;;;;;;;WHOLE ROCK;;;;;;;;;;;;;;47.47;2.36;13.78;;;;;2.88;;7.98;12.17;9.23;0.17;;;;;;0.44;XRF;;;1.98;XRF;;;0.22;0.62;;;;;;;;;;;;;;;;;;;;;;;;;;;;;;;;;;;;;;;;;;;;;;;;;;;;;;;;;;;;;;;;;;;;;;;;;;;;;;;;;;;;;;;;;;;;;;;;;;;;;;;;;;;;;;;;;;;;;;;;;;;;;;;;;;;;;;;;;;;;;;;;;;;;;;;;;;;;;;;;;;;;;;;;;;;;;;;;;;;;;;;;;;;;;;;;;;;;;;;;;;;;;;;;;;;;;;;;;;;;;;;;;;;;;;;;;;;;;;;;;;;;;;;;;;;;;;;;;;;;;;;;;;;;;;;;;;;;;;;;;;;;;;;;;;;;;
1979;[1815] JAKOBSSON S. P. (1979);samp. S12;;ICELAND / ICELAND / EYJAFJLL;SOUTHEASTERN ZONE, JKULHAUS;63.5;-19.5;63.5;-19.5;;;OUTCROP;;;SUBAERIAL;VOLCANIC ROCK;ANKARAMITE;;BRECCIA;;;;;;;;WHOLE ROCK;;;;;;;;;;;;;;45.49;1.3;8.16;;;;;2.6;;7.8;11.04;18.49;0.16;;;;;;0.34;XRF;;;1.18;XRF;;;0.13;3.36;;;;;;;;;;;;;;;;;;;;;;;;;;;;;;;;;;;;;;;;;;;;;;;;;;;;;;;;;;;;;;;;;;;;;;;;;;;;;;;;;;;;;;;;;;;;;;;;;;;;;;;;;;;;;;;;;;;;;;;;;;;;;;;;;;;;;;;;;;;;;;;;;;;;;;;;;;;;;;;;;;;;;;;;;;;;;;;;;;;;;;;;;;;;;;;;;;;;;;;;;;;;;;;;;;;;;;;;;;;;;;;;;;;;;;;;;;;;;;;;;;;;;;;;;;;;;;;;;;;;;;;;;;;;;;;;;;;;;;;;;;;;;;;;;;;;;
1996;[1822] BROWN P. E. (1996);samp. 2209;;NORTH ATLANTIC IGNEOUS PROVINCE (NAIP) / EAST GREENLAND / PRINCE OF WALES BJERGE FORMATION;PRINSEN AF WALES BJERGE, BLOSSEVILLE KYST;66;-30;69;-33;;;OUTCROP;;;SUBAERIAL;VOLCANIC ROCK;ANKARAMITE;;;;;CENOZOIC;;;;;WHOLE ROCK;;;;;;;;;;;;;;44.39;4.25;10.17;;;;;2.21;;11.05;9.23;6.17;0.18;;;;;;1.82;XRF;;;3.67;XRF;;;0.74;;;;;;;;;;;;;;;;;;;;;;;;;;;;;;;;;;;;;;;;;;;;;;;;;17;XRF;;;;;;305;XRF;;;;;;;;;;;;;;;114;XRF;;;;;;;;;135;XRF;;;24;XRF;;;;;;35.92;TIMS_ID;38;XRF;1157.7;TIMS_ID;1193;XRF;33;XRF;;;512;XRF;;;112;XRF;;;;;;;;;;;;581;XRF;;;101;XRF;;;213;XRF;;;;;;;89.81;TIMS_ID;;;15.18;TIMS_ID;;;;;;;;;;;;;;;;;;;;;;;;;;;;;;;;;;;;;;;;;;4;XRF;;;;9;XRF;;;;;;;;;;;0.51286;;;0.70425;;;;;;;;;;;;;;;;;;;;;;;;;;;;;;;;;;;;;;;;;;;;;;;;;;;;;;;;;;;;;;;;;;;;;;;;;;;;;;;;;;;;;;;;;
1996;[1822] BROWN P. E. (1996);samp. 2218;;NORTH ATLANTIC IGNEOUS PROVINCE (NAIP) / EAST GREENLAND / PRINCE OF WALES BJERGE FORMATION;PRINSEN AF WALES BJERGE, BLOSSEVILLE KYST;66;-30;69;-33;;;OUTCROP;;;SUBAERIAL;VOLCANIC ROCK;ANKARAMITE;;;;;CENOZOIC;;;;;WHOLE ROCK;;;;;;;;;;;;;;42.75;5.5;8.12;;;;;2.63;;13.17;10.49;8.34;0.21;;;;;;1.27;XRF;;;2.07;XRF;;;0.74;;;;;;;;;;;;;;;;;;;;;;;;;;;;;;;;;;;;;;;;;;;;;;;;;27;XRF;;;;;;438;XRF;;;;;;;;;;;;;;;215;XRF;;;;;;;;;146;XRF;;;29;XRF;;;;;;24.32;TIMS_ID;26;XRF;746.9;TIMS_ID;780;XRF;32;XRF;;;441;XRF;;;67;XRF;;;;;;;;;;;;473;XRF;;;63;XRF;;;156;XRF;;;;;;;74.24;TIMS_ID;;;14.48;TIMS_ID;;;;;;;;;;;;;;;;;;;;;;;;;;;;;;;;;;;;;;;;;;2;XRF;;;;6;XRF;;;;;;;;;;;0.5128;;;0.70401;;;;;;;;;;;;;;;;;;;;;;;;;;;;;;;;;;;;;;;;;;;;;;;;;;;;;;;;;;;;;;;;;;;;;;;;;;;;;;;;;;;;;;;;;
1996;[1822] BROWN P. E. (1996);samp. 2220;;NORTH ATLANTIC IGNEOUS PROVINCE (NAIP) / EAST GREENLAND / PRINCE OF WALES BJERGE FORMATION;PRINSEN AF WALES BJERGE, BLOSSEVILLE KYST;66;-30;69;-33;;;OUTCROP;;;SUBAERIAL;VOLCANIC ROCK;ANKARAMITE;;;;;CENOZOIC;;;;;WHOLE ROCK;;;;;;;;;;;;;;43.58;4.68;8.87;;;;;2.42;;12.09;9.65;9.66;0.2;;;;;;1.52;XRF;;;3.17;XRF;;;0.7;;;;;;;;;;;;;;;;;;;;;;;;;;;;;;;;;;;;;;;;;;;;;;;;;16;XRF;;;;;;366;XRF;;;;;;;;;;;;;;;251;XRF;;;;;;;;;133;XRF;;;19;XRF;;;;;;28.77;TIMS_ID;32;XRF;1006.7;TIMS_ID;1074;XRF;30;XRF;;;426;XRF;;;88;XRF;;;;;;;;;;;;556;XRF;;;81;XRF;;;182;XRF;;;;;;;76.42;TIMS_ID;;;12.96;TIMS_ID;;;;;;;;;;;;;;;;;;;;;;;;;;;;;;;;;;;;;;;;;;2;XRF;;;;7;XRF;;;;;;;;;;;0.51289;;;0.70419;;;;;;;;;;;;;;;;;;;;;;;;;;;;;;;;;;;;;;;;;;;;;;;;;;;;;;;;;;;;;;;;;;;;;;;;;;;;;;;;;;;;;;;;;
1996;[1822] BROWN P. E. (1996);samp. 2222;;NORTH ATLANTIC IGNEOUS PROVINCE (NAIP) / EAST GREENLAND / PRINCE OF WALES BJERGE FORMATION;PRINSEN AF WALES BJERGE, BLOSSEVILLE KYST;66;-30;69;-33;;;OUTCROP;;;SUBAERIAL;VOLCANIC ROCK;ANKARAMITE;;;;;CENOZOIC;;;;;WHOLE ROCK;;;;;;;;;;;;;;43.03;5.07;9.06;;;;;2.34;;11.69;11.43;6.62;0.17;;;;;;0.82;XRF;;;2.57;XRF;;;0.64;;;;;;;;;;;;;;;;;;;;;;;;;;;;;;;;;;;;;;;;;;;;;;;;;25;XRF;;;;;;433;XRF;;;;;;;;;;;;;;;124;XRF;;;;;;;;;116;XRF;;;24;XRF;;;;;;37.77;TIMS_ID;39;XRF;1399.3;TIMS_ID;1393;XRF;31;XRF;;;416;XRF;;;31;XRF;;;;;;;;;;;;520;XRF;;;71;XRF;;;154;XRF;;;;;;;72.41;TIMS_ID;;;13.03;TIMS_ID;;;;;;;;;;;;;;;;;;;;;;;;;;;;;;;;;;;;;;;;;;7;XRF;;;;8;XRF;;;;;;;;;;;0.51278;;;0.70467;;;;;;;;;;;;;;;;;;;;;;;;;;;;;;;;;;;;;;;;;;;;;;;;;;;;;;;;;;;;;;;;;;;;;;;;;;;;;;;;;;;;;;;;;
1996;[1822] BROWN P. E. (1996);samp. 2223;;NORTH ATLANTIC IGNEOUS PROVINCE (NAIP) / EAST GREENLAND / PRINCE OF WALES BJERGE FORMATION;PRINSEN AF WALES BJERGE, BLOSSEVILLE KYST;66;-30;69;-33;;;OUTCROP;;;SUBAERIAL;VOLCANIC ROCK;ANKARAMITE;;;;;CENOZOIC;;;;;WHOLE ROCK;;;;;;;;;;;;;;45.78;4.53;11.32;;;;;2.36;;11.81;7.92;6.62;0.19;;;;;;1.43;XRF;;;3.61;XRF;;;0.66;;;;;;;;;;;;;;;;;;;;;;;;;;;;;;;;;;;;;;;;;;;;;;;;;18;XRF;;;;;;348;XRF;;;;;;;;;;;;;;;122;XRF;;;;;;;;;143;XRF;;;24;XRF;;;;;;31.8;TIMS_ID;34;XRF;715.4;TIMS_ID;747;XRF;31;XRF;;;385;XRF;;;69;XRF;;;;;;;;;;;;538;XRF;;;70;XRF;;;161;XRF;;;;;;;70.03;TIMS_ID;;;12.51;TIMS_ID;;;;;;;;;;;;;;;;;;;;;;;;;;;;;;;;;;;;;;;;;;0;XRF;;;;6;XRF;;;;;;;;;;;0.51267;;;0.70443;;;;;;;;;;;;;;;;;;;;;;;;;;;;;;;;;;;;;;;;;;;;;;;;;;;;;;;;;;;;;;;;;;;;;;;;;;;;;;;;;;;;;;;;;
1996;[1822] BROWN P. E. (1996);samp. 2230;;NORTH ATLANTIC IGNEOUS PROVINCE (NAIP) / EAST GREENLAND / PRINCE OF WALES BJERGE FORMATION;PRINSEN AF WALES BJERGE, BLOSSEVILLE KYST;66;-30;69;-33;;;OUTCROP;;;SUBAERIAL;VOLCANIC ROCK;ANKARAMITE;;;;;CENOZOIC;;;;;WHOLE ROCK;;;;;;;;;;;;;;42.47;5.99;8.41;;;;;2.66;;13.31;10.03;8.35;0.2;;;;;;1.35;XRF;;;2.55;XRF;;;0.76;;;;;;;;;;;;;;;;;;;;;;;;;;;;;;;;;;;;;;;;;;;;;;;;;26;XRF;;;;;;462;XRF;;;;;;;;;;;;;;;217;XRF;;;;;;;;;130;XRF;;;21;XRF;;;;;;30;XRF;;;640;XRF;;;32;XRF;;;473;XRF;;;71;XRF;;;;;;;;;;;;526;XRF;;;61;XRF;;;158;XRF;;;;;;;;;;;;;;;;;;;;;;;;;;;;;;;;;;;;;;;;;;;;;;;;;;;;;;2;XRF;;;;8;XRF;;;;;;;;;;;;;;;;;;;;;;;;;;;;;;;;;;;;;;;;;;;;;;;;;;;;;;;;;;;;;;;;;;;;;;;;;;;;;;;;;;;;;;;;;;;;;;;;;;;;;;;