Year;CITATION;SAMPLE NAME;UNIQUE_ID;LOCATION;LOCATION COMMENT;LATITUDE (MIN.);LONGITUDE (MIN.);LATITUDE (MAX.);LONGITUDE (MAX.);ELEVATION (MIN.);ELEVATION (MAX.);SAMPLING TECHNIQUE;DRILLING DEPTH (MIN.);DRILLING DEPTH (MAX.);LAND/SEA (SAMPLING);ROCK TYPE;ROCK NAME;ROCK TEXTURE;SAMPLE COMMENT;AGE (MIN.);AGE (MAX.);GEOLOGICAL AGE;GEOLOGICAL AGE PREFIX;ERUPTION YEAR;ALTERATION;ALTERATION TYPE;TYPE OF MATERIAL;MINERAL / COMPONENT;SPOT (MINERAL);CRYSTAL;RIM / CORE (MINERAL GRAINS);GRAIN SIZE;PRIMARY/SECONDARY;INCLUSION TYPE;SPOT (INCLUSION);MINERAL (INCLUSION);RIM / CORE (INCLUSION);HOSTMINERAL (INCLUSION);HEATING;HEATING TEMPERATURE (?C);SIO2(WT%);TIO2(WT%);AL2O3(WT%);CR2O3(WT%);V2O3(WT%);V2O5(WT%);FE2O3T(WT%);FE2O3(WT%);FEOT(WT%);FEO(WT%);CAO(WT%);MGO(WT%);MNO(WT%);BAO(WT%);SRO(WT%);NIO(WT%);ZNO(WT%);COO(WT%);K2O(WT%);;;;NA2O(WT%);;;;P2O5(WT%);H2O(WT%);H2OP(WT%);H2OM(WT%);CO2(WT%);F(WT%);CL(WT%);CL2(WT%);SO3(WT%);S(WT%);LOI(WT%);O(WT%);SI(WT%);AL(WT%);TI(WT%);FE(WT%);MG(WT%);MN(WT%);CA(WT%);K(WT%): altern. values or methods;;;;NA(WT%);CR(WT%);NI(WT%);HE(CCMSTP/G);HE3(CCMSTP/G);HE4(CCMSTP/G): altern. values or methods;;;;LI(PPM);BE(PPM);B(PPM);F(PPM);NE20(CCMSTP/G);NE22(CCMSTP/G);P(PPM);S(PPM);CL(PPM);AR36(CCMSTP/G);AR40(CCMSTP/G);AR40(MOL/G): altern. values or methods;;;;AR40(PPB);K(PPM);SC(PPM): altern. values or methods;;;;;;TI(PPM);V(PPM): altern. values or methods;;;;CR(PPM): altern. values or methods;;;;MN(PPM);FE(PPM);CO(PPM): altern. values or methods;;;;;;NI(PPM): altern. values or methods;;;;;;CU(PPM): altern. values or methods;;;;ZN(PPM): altern. values or methods;;;;GA(PPM): altern. values or methods;;;;GE(PPM);AS(PPM);KR84(CCMSTP/G);RB(PPM): altern. values or methods;;;;SR(PPM): altern. values or methods;;;;Y(PPM): altern. values or methods;;;;ZR(PPM): altern. values or methods;;;;NB(PPM): altern. values or methods;;;;MO(PPM);RU(PPB);RH(PPB);PD(PPB);IN(PPM);SN(PPM);SB(PPM);XE132(CCMSTP/G);CS(PPM);BA(PPM): altern. values or methods;;;;LA(PPM): altern. values or methods;;;;CE(PPM): altern. values or methods;;;;PR(PPM): altern. values or methods;;;;ND(PPM): altern. values or methods;;;;SM(PPM): altern. values or methods;;;;EU(PPM): altern. values or methods;;;;GD(PPM);TB(PPM): altern. values or methods;;;;DY(PPM);HO(PPM);ER(PPM);TM(PPM);YB(PPM): altern. values or methods;;;;LU(PPM);HF(PPM): altern. values or methods;;;;TA(PPM);W(PPM);RE(PPB): altern. values or methods;;;;RE(PPT);OS(PPB): altern. values or methods;;;;OS(PPT);IR(PPB);PT(PPB);AU(PPB);HG(PPB);TL(PPM);PB(PPM): altern. values or methods;;;;PB210_ACT(DPM/G);TH(PPM): altern. values or methods;;;;TH(PPB);U(PPM): altern. values or methods;;;;U(PPB);CO2(PPM);H2O(PPM);ND143_ND144;ND148_ND144;SM147_ND144;SR87_SR86;RB87_SR86;PB206_PB204: altern. values or methods;;;;PB206_PB207;PB206_PB208;PB207_PB204: altern. values or methods;;;;PB207_PB206;PB208_PB204: altern. values or methods;;;;PB208_PB206;OS187_OS186;OS187_OS188: altern. values or methods;;;;RE187_OS188: altern. values or methods;;;;HF176_HF177;HE3_HE4;HE3_HE4(R/R(A)): altern. values or methods;;;;HE4_HE3: altern. values or methods;;;;;;HE4_HE3(R/R(A)): altern. values or methods;;;;AR38_AR36;AR40_AR36;NE20_NE22;NE21_NE22;XE129_XE132;PB206_U238;PB207_U235;PB210_U238;TH232_U238;U238_PB204;D13C(VS SMOW);D17O(VS VSMOW);D18O(PER MIL);D18O(VS PDB);D18O(VS SMOW);D18O(VS VSMOW);D34S(VS CDT);D44_40CA(VS SRM915A);D56FE(VS IRMM-014);DD(VS SMOW);ALBITE(MOL%);ACMITE(MOL%);ANORTHITE(MOL%);ENSTATITE(MOL%);FAYALITE(MOL%);FORSTERITE(MOL%);FERROSILITE(MOL%);HEMATITE(MOL%);LARNITE(MOL%);ORTHOCLASE(MOL%);PSEUDOBROOKITE(MOL%);TEPHROITE(MOL%);ULVOSPINEL(MOL%);WOLLASTONITE(MOL%);AGE(KA);AGE(MA): altern. values or methods;;;;;;;;AGE_PB207_PB206(MA);AGE_PB207_U235(MA);AGE_PB206_U238(MA);
1997;[3729] PASQUA F. N. (1997);samp. 48002;55263;SUNDA ARC / SUNDA ARC / LOMBOK / RINDJANI/RINJANI;;-8.42;116.47;-8.42;116.47;;3726;OUTCROP;;;SUBAERIAL;VOLCANIC ROCK;ANKARAMITE;;;;;;;;;;INCLUSION;;;;;;;MINERAL INCLUSION;;OLIVINE;;;TRUE;1220;43.5;1.17;17.73;;;;;;;5.72;17.47;8.73;0.11;;;;;;1.05;EMP (EPMA);;;2.77;EMP (EPMA);;;0.23;;;;;;;;;;;;;;;;;;;;;;;;;;;;;;;;;;;;;;;;;;;;;;;;;;;;;;;;;;;;;;;;;;;;;;;;;;;;;;;;;;;;;;;;;;;;;;;;;;;;;;;;;;;;;;;;;;;;;;;;;;;;;;;;;;;;;;;;;;;;;;;;;;;;;;;;;;;;;;;;;;;;;;;;;;;;;;;;;;;;;;;;;;;;;;;;;;;;;;;;;;;;;;;;;;;;;;;;;;;;;;;;;;;;;;;;;;;;;;;;;;;;;;;;;;;;;;;;;;;;;;;;;;;;;;;;;;;;;;;;;;;;;;;;;;;;;;
1997;[3729] PASQUA F. N. (1997);samp. 48002;55263;SUNDA ARC / SUNDA ARC / LOMBOK / RINDJANI/RINJANI;;-8.42;116.47;-8.42;116.47;;3726;OUTCROP;;;SUBAERIAL;VOLCANIC ROCK;ANKARAMITE;;;;;;;;;;INCLUSION;;;;;;;MINERAL INCLUSION;;OLIVINE;;;TRUE;1220;45;1.27;17.23;;;;;;;5.63;17.08;8.78;0.03;;;;;;1.1;EMP (EPMA);;;2.72;EMP (EPMA);;;0.18;;;;;;;;;;;;;;;;;;;;;;;;;;;;;;;;;;;;;;;;;;;;;;;;;;;;;;;;;;;;;;;;;;;;;;;;;;;;;;;;;;;;;;;;;;;;;;;;;;;;;;;;;;;;;;;;;;;;;;;;;;;;;;;;;;;;;;;;;;;;;;;;;;;;;;;;;;;;;;;;;;;;;;;;;;;;;;;;;;;;;;;;;;;;;;;;;;;;;;;;;;;;;;;;;;;;;;;;;;;;;;;;;;;;;;;;;;;;;;;;;;;;;;;;;;;;;;;;;;;;;;;;;;;;;;;;;;;;;;;;;;;;;;;;;;;;;;
1997;[3729] PASQUA F. N. (1997);samp. 48002;55263;SUNDA ARC / SUNDA ARC / LOMBOK / RINDJANI/RINJANI;;-8.42;116.47;-8.42;116.47;;3726;OUTCROP;;;SUBAERIAL;VOLCANIC ROCK;ANKARAMITE;;;;;;;;;;INCLUSION;;;;;;;MINERAL INCLUSION;;CLINOPYROXENE;;;TRUE;1100;53.96;1.01;17.18;;;;;;;5.87;7.7;5.11;0.13;;;;;;2.26;EMP (EPMA);;;3.04;EMP (EPMA);;;0.34;;;;;;;;;;;;;;;;;;;;;;;;;;;;;;;;;;;;;;;;;;;;;;;;;;;;;;;;;;;;;;;;;;;;;;;;;;;;;;;;;;;;;;;;;;;;;;;;;;;;;;;;;;;;;;;;;;;;;;;;;;;;;;;;;;;;;;;;;;;;;;;;;;;;;;;;;;;;;;;;;;;;;;;;;;;;;;;;;;;;;;;;;;;;;;;;;;;;;;;;;;;;;;;;;;;;;;;;;;;;;;;;;;;;;;;;;;;;;;;;;;;;;;;;;;;;;;;;;;;;;;;;;;;;;;;;;;;;;;;;;;;;;;;;;;;;;;
1997;[3729] PASQUA F. N. (1997);samp. 48002;55263;SUNDA ARC / SUNDA ARC / LOMBOK / RINDJANI/RINJANI;;-8.42;116.47;-8.42;116.47;;3726;OUTCROP;;;SUBAERIAL;VOLCANIC ROCK;ANKARAMITE;;;;;;;;;;INCLUSION;;;;;;;MINERAL INCLUSION;;CLINOPYROXENE;;;TRUE;1200;56.89;0.4;16.26;;;;;;;5.81;9;3.89;0.07;;;;;;3.09;EMP (EPMA);;;3.74;EMP (EPMA);;;0.67;;;;;;;;;;;;;;;;;;;;;;;;;;;;;;;;;;;;;;;;;;;;;;;;;;;;;;;;;;;;;;;;;;;;;;;;;;;;;;;;;;;;;;;;;;;;;;;;;;;;;;;;;;;;;;;;;;;;;;;;;;;;;;;;;;;;;;;;;;;;;;;;;;;;;;;;;;;;;;;;;;;;;;;;;;;;;;;;;;;;;;;;;;;;;;;;;;;;;;;;;;;;;;;;;;;;;;;;;;;;;;;;;;;;;;;;;;;;;;;;;;;;;;;;;;;;;;;;;;;;;;;;;;;;;;;;;;;;;;;;;;;;;;;;;;;;;;
1997;[3729] PASQUA F. N. (1997);samp. 67424;;SUNDA ARC / SUNDA ARC / BALI / ULAKAN;;-8.2;114.5;-8.3;115.5;;;OUTCROP;;;SUBAERIAL;VOLCANIC ROCK;ANKARAMITE;;;;;;;;;;INCLUSION;;;;;;;MINERAL INCLUSION;;OLIVINE;;;FALSE;;49.98;1.08;21.07;;;;;;;2.27;18.81;0.98;0.02;;;;;;2.12;EMP (EPMA);;;2.88;EMP (EPMA);;;0.32;;;;;;;;;;;;;;;;;;;;;;;;;;;;;;;;;;;;;;;;;;;;;;;;;;;;;;;;;;;;;;;;;;;;;;;;;;;;;;;;;;;;;;;;;;;;;;;;;;;;;;;;;;;;;;;;;;;;;;;;;;;;;;;;;;;;;;;;;;;;;;;;;;;;;;;;;;;;;;;;;;;;;;;;;;;;;;;;;;;;;;;;;;;;;;;;;;;;;;;;;;;;;;;;;;;;;;;;;;;;;;;;;;;;;;;;;;;;;;;;;;;;;;;;;;;;;;;;;;;;;;;;;;;;;;;;;;;;;;;;;;;;;;;;;;;;;;
1997;[3729] PASQUA F. N. (1997);samp. 67424;;SUNDA ARC / SUNDA ARC / BALI / ULAKAN;;-8.2;114.5;-8.3;115.5;;;OUTCROP;;;SUBAERIAL;VOLCANIC ROCK;ANKARAMITE;;;;;;;;;;INCLUSION;;;;;;;MINERAL INCLUSION;;OLIVINE;;;TRUE;1240;47.05;0.81;13.1;;;;;;;4.94;15.36;13.1;0;;;;;;1.23;EMP (EPMA);;;1.73;EMP (EPMA);;;0.47;;;;;;;;;;;;;;;;;;;;;;;;;;;;;;;;;;;;;;;;;;;;;;;;;;;;;;;;;;;;;;;;;;;;;;;;;;;;;;;;;;;;;;;;;;;;;;;;;;;;;;;;;;;;;;;;;;;;;;;;;;;;;;;;;;;;;;;;;;;;;;;;;;;;;;;;;;;;;;;;;;;;;;;;;;;;;;;;;;;;;;;;;;;;;;;;;;;;;;;;;;;;;;;;;;;;;;;;;;;;;;;;;;;;;;;;;;;;;;;;;;;;;;;;;;;;;;;;;;;;;;;;;;;;;;;;;;;;;;;;;;;;;;;;;;;;;;
1997;[3729] PASQUA F. N. (1997);samp. 67424;;SUNDA ARC / SUNDA ARC / BALI / ULAKAN;;-8.2;114.5;-8.3;115.5;;;OUTCROP;;;SUBAERIAL;VOLCANIC ROCK;ANKARAMITE;;;;;;;;;;INCLUSION;;;;;;;MINERAL INCLUSION;;OLIVINE;;;TRUE;1240;47.52;0.93;13.28;;;;;;;3.8;16.07;12.48;0.05;;;;;;1.57;EMP (EPMA);;;2.31;EMP (EPMA);;;0.41;;;;;;;;;;;;;;;;;;;;;;;;;;;;;;;;;;;;;;;;;;;;;;;;;;;;;;;;;;;;;;;;;;;;;;;;;;;;;;;;;;;;;;;;;;;;;;;;;;;;;;;;;;;;;;;;;;;;;;;;;;;;;;;;;;;;;;;;;;;;;;;;;;;;;;;;;;;;;;;;;;;;;;;;;;;;;;;;;;;;;;;;;;;;;;;;;;;;;;;;;;;;;;;;;;;;;;;;;;;;;;;;;;;;;;;;;;;;;;;;;;;;;;;;;;;;;;;;;;;;;;;;;;;;;;;;;;;;;;;;;;;;;;;;;;;;;;
1997;[3729] PASQUA F. N. (1997);samp. 67424;;SUNDA ARC / SUNDA ARC / BALI / ULAKAN;;-8.2;114.5;-8.3;115.5;;;OUTCROP;;;SUBAERIAL;VOLCANIC ROCK;ANKARAMITE;;;;;;;;;;INCLUSION;;;;;;;MINERAL INCLUSION;;CLINOPYROXENE;;;TRUE;1300;51.01;0.59;8.71;;;;;;;8.44;18.27;11.08;0.08;;;;;;1.02;EMP (EPMA);;;1.34;EMP (EPMA);;;0.38;;;;;;;;;;;;;;;;;;;;;;;;;;;;;;;;;;;;;;;;;;;;;;;;;;;;;;;;;;;;;;;;;;;;;;;;;;;;;;;;;;;;;;;;;;;;;;;;;;;;;;;;;;;;;;;;;;;;;;;;;;;;;;;;;;;;;;;;;;;;;;;;;;;;;;;;;;;;;;;;;;;;;;;;;;;;;;;;;;;;;;;;;;;;;;;;;;;;;;;;;;;;;;;;;;;;;;;;;;;;;;;;;;;;;;;;;;;;;;;;;;;;;;;;;;;;;;;;;;;;;;;;;;;;;;;;;;;;;;;;;;;;;;;;;;;;;;
1997;[3729] PASQUA F. N. (1997);samp. 31551;55265;NEW HEBRIDES ARC - VANUATU ARCHIPELAGO / BANKS ISLANDS / MERELAVA / MERELAVA;;-14.45;168;-14.45;168;;;OUTCROP;;;SUBAERIAL;VOLCANIC ROCK;ANKARAMITE;;;;;;;;;;INCLUSION;;;;;;;MINERAL INCLUSION;;OLIVINE;;;TRUE;1242;48.81;0.56;15.74;;;;;;;5.42;17.84;9.03;0.07;;;;;;0.64;EMP (EPMA);;;1.78;EMP (EPMA);;;0.47;;;;;;;;;;;;;;;;;;;;;;;;;;;;;;;;;;;;;;;;;;;;;;;;;;;;;;;;;;;;;;;;;;;;;;;;;;;;;;;;;;;;;;;;;;;;;;;;;;;;;;;;;;;;;;;;;;;;;;;;;;;;;;;;;;;;;;;;;;;;;;;;;;;;;;;;;;;;;;;;;;;;;;;;;;;;;;;;;;;;;;;;;;;;;;;;;;;;;;;;;;;;;;;;;;;;;;;;;;;;;;;;;;;;;;;;;;;;;;;;;;;;;;;;;;;;;;;;;;;;;;;;;;;;;;;;;;;;;;;;;;;;;;;;;;;;;;
1997;[3729] PASQUA F. N. (1997);samp. 31551;55265;NEW HEBRIDES ARC - VANUATU ARCHIPELAGO / BANKS ISLANDS / MERELAVA / MERELAVA;;-14.45;168;-14.45;168;;;OUTCROP;;;SUBAERIAL;VOLCANIC ROCK;ANKARAMITE;;;;;;;;;;INCLUSION;;;;;;;MINERAL INCLUSION;;OLIVINE;;;TRUE;1242;47.94;0.52;15.9;;;;;;;5.76;17.93;8.97;0;;;;;;0.59;EMP (EPMA);;;1.8;EMP (EPMA);;;0.42;;;;;;;;;;;;;;;;;;;;;;;;;;;;;;;;;;;;;;;;;;;;;;;;;;;;;;;;;;;;;;;;;;;;;;;;;;;;;;;;;;;;;;;;;;;;;;;;;;;;;;;;;;;;;;;;;;;;;;;;;;;;;;;;;;;;;;;;;;;;;;;;;;;;;;;;;;;;;;;;;;;;;;;;;;;;;;;;;;;;;;;;;;;;;;;;;;;;;;;;;;;;;;;;;;;;;;;;;;;;;;;;;;;;;;;;;;;;;;;;;;;;;;;;;;;;;;;;;;;;;;;;;;;;;;;;;;;;;;;;;;;;;;;;;;;;;;
1997;[3729] PASQUA F. N. (1997);samp. 71041;55267;NEW HEBRIDES ARC - VANUATU ARCHIPELAGO / CENTRAL NEW HEBRIDES ARC / EPI / EAST EPI;;-16.89;168.3;-16.89;168.3;;;OUTCROP;;;SUBAERIAL;VOLCANIC ROCK;ANKARAMITE;;;;;;;;;;INCLUSION;;;;;;;MINERAL INCLUSION;;OLIVINE;;;TRUE;1305;44.96;0.6;14.74;;;;;;;5.7;19.47;11.82;0.05;;;;;;0.45;EMP (EPMA);;;2;EMP (EPMA);;;0.16;;;;;;;;;;;;;;;;;;;;;;;;;;;;;;;;;;;;;;;;;;;;;;;;;;;;;;;;;;;;;;;;;;;;;;;;;;;;;;;;;;;;;;;;;;;;;;;;;;;;;;;;;;;;;;;;;;;;;;;;;;;;;;;;;;;;;;;;;;;;;;;;;;;;;;;;;;;;;;;;;;;;;;;;;;;;;;;;;;;;;;;;;;;;;;;;;;;;;;;;;;;;;;;;;;;;;;;;;;;;;;;;;;;;;;;;;;;;;;;;;;;;;;;;;;;;;;;;;;;;;;;;;;;;;;;;;;;;;;;;;;;;;;;;;;;;;;
1997;[3729] PASQUA F. N. (1997);samp. 71041;55267;NEW HEBRIDES ARC - VANUATU ARCHIPELAGO / CENTRAL NEW HEBRIDES ARC / EPI / EAST EPI;;-16.89;168.3;-16.89;168.3;;;OUTCROP;;;SUBAERIAL;VOLCANIC ROCK;ANKARAMITE;;;;;;;;;;INCLUSION;;;;;;;MINERAL INCLUSION;;CLINOPYROXENE;;;TRUE;1237;53.24;0.35;9.14;;;;;;;7.74;14.33;9.82;0;;;;;;0.33;EMP (EPMA);;;1.2;EMP (EPMA);;;0.06;;;;;;;;;;;;;;;;;;;;;;;;;;;;;;;;;;;;;;;;;;;;;;;;;;;;;;;;;;;;;;;;;;;;;;;;;;;;;;;;;;;;;;;;;;;;;;;;;;;;;;;;;;;;;;;;;;;;;;;;;;;;;;;;;;;;;;;;;;;;;;;;;;;;;;;;;;;;;;;;;;;;;;;;;;;;;;;;;;;;;;;;;;;;;;;;;;;;;;;;;;;;;;;;;;;;;;;;;;;;;;;;;;;;;;;;;;;;;;;;;;;;;;;;;;;;;;;;;;;;;;;;;;;;;;;;;;;;;;;;;;;;;;;;;;;;;;
1995;[3730] PASQUA F. N. (1995);samp. 71041;;NEW HEBRIDES ARC - VANUATU ARCHIPELAGO / CENTRAL NEW HEBRIDES ARC / EPI / WEST EPII;;-16.89;-168.3;-16.89;-168.3;;;OUTCROP;;;SUBAERIAL;VOLCANIC ROCK;ANKARAMITE;;LAVA;;;;;;;;INCLUSION;;;;;;;MINERAL INCLUSION;;AL-SPINEL;;OLIVINE;FALSE;;;0.26;45.8;6.76;;;;17.03;;14.09;;16.55;0.05;;;0.13;0.09;;;;;;;;;;;;;;;;;;;;;;;;;;;;;;;;;;;;;;;;;;;;;;;;;;;;;;;;;;;;;;;;;;;;;;;;;;;;;;;;;;;;;;;;;;;;;;;;;;;;;;;;;;;;;;;;;;;;;;;;;;;;;;;;;;;;;;;;;;;;;;;;;;;;;;;;;;;;;;;;;;;;;;;;;;;;;;;;;;;;;;;;;;;;;;;;;;;;;;;;;;;;;;;;;;;;;;;;;;;;;;;;;;;;;;;;;;;;;;;;;;;;;;;;;;;;;;;;;;;;;;;;;;;;;;;;;;;;;;;;;;;;;;;;;;;;;;;;;;;;;;;;
1995;[3730] PASQUA F. N. (1995);samp. 71041;;NEW HEBRIDES ARC - VANUATU ARCHIPELAGO / CENTRAL NEW HEBRIDES ARC / EPI / WEST EPII;;-16.89;-168.3;-16.89;-168.3;;;OUTCROP;;;SUBAERIAL;VOLCANIC ROCK;ANKARAMITE;;LAVA;;;;;;;;INCLUSION;;;;;;;MINERAL INCLUSION;;AL-SPINEL;;OLIVINE;FALSE;;;0.67;51.88;4.87;;;;11.7;;12.62;;18.22;0.13;;;0.2;0.11;;;;;;;;;;;;;;;;;;;;;;;;;;;;;;;;;;;;;;;;;;;;;;;;;;;;;;;;;;;;;;;;;;;;;;;;;;;;;;;;;;;;;;;;;;;;;;;;;;;;;;;;;;;;;;;;;;;;;;;;;;;;;;;;;;;;;;;;;;;;;;;;;;;;;;;;;;;;;;;;;;;;;;;;;;;;;;;;;;;;;;;;;;;;;;;;;;;;;;;;;;;;;;;;;;;;;;;;;;;;;;;;;;;;;;;;;;;;;;;;;;;;;;;;;;;;;;;;;;;;;;;;;;;;;;;;;;;;;;;;;;;;;;;;;;;;;;;;;;;;;;;;
1995;[3730] PASQUA F. N. (1995);samp. 71041;;NEW HEBRIDES ARC - VANUATU ARCHIPELAGO / CENTRAL NEW HEBRIDES ARC / EPI / WEST EPII;;-16.89;-168.3;-16.89;-168.3;;;OUTCROP;;;SUBAERIAL;VOLCANIC ROCK;ANKARAMITE;;LAVA;;;;;;;;INCLUSION;;;;;;;MINERAL INCLUSION;;AL-SPINEL;;OLIVINE;FALSE;;;0.25;56.04;1.18;;;;13.22;;9.56;;20.61;0.05;;;0.17;0.18;;;;;;;;;;;;;;;;;;;;;;;;;;;;;;;;;;;;;;;;;;;;;;;;;;;;;;;;;;;;;;;;;;;;;;;;;;;;;;;;;;;;;;;;;;;;;;;;;;;;;;;;;;;;;;;;;;;;;;;;;;;;;;;;;;;;;;;;;;;;;;;;;;;;;;;;;;;;;;;;;;;;;;;;;;;;;;;;;;;;;;;;;;;;;;;;;;;;;;;;;;;;;;;;;;;;;;;;;;;;;;;;;;;;;;;;;;;;;;;;;;;;;;;;;;;;;;;;;;;;;;;;;;;;;;;;;;;;;;;;;;;;;;;;;;;;;;;;;;;;;;;;
1995;[3730] PASQUA F. N. (1995);samp. 71041;;NEW HEBRIDES ARC - VANUATU ARCHIPELAGO / CENTRAL NEW HEBRIDES ARC / EPI / WEST EPII;;-16.89;-168.3;-16.89;-168.3;;;OUTCROP;;;SUBAERIAL;VOLCANIC ROCK;ANKARAMITE;;LAVA;;;;;;;;INCLUSION;;;;;;;MINERAL INCLUSION;;AL-SPINEL;;OLIVINE;FALSE;;;0.16;51.06;11.01;;;;8.31;;9.81;;19.74;0.14;;;0.16;0.13;;;;;;;;;;;;;;;;;;;;;;;;;;;;;;;;;;;;;;;;;;;;;;;;;;;;;;;;;;;;;;;;;;;;;;;;;;;;;;;;;;;;;;;;;;;;;;;;;;;;;;;;;;;;;;;;;;;;;;;;;;;;;;;;;;;;;;;;;;;;;;;;;;;;;;;;;;;;;;;;;;;;;;;;;;;;;;;;;;;;;;;;;;;;;;;;;;;;;;;;;;;;;;;;;;;;;;;;;;;;;;;;;;;;;;;;;;;;;;;;;;;;;;;;;;;;;;;;;;;;;;;;;;;;;;;;;;;;;;;;;;;;;;;;;;;;;;;;;;;;;;;;
1995;[3730] PASQUA F. N. (1995);samp. 71041;;NEW HEBRIDES ARC - VANUATU ARCHIPELAGO / CENTRAL NEW HEBRIDES ARC / EPI / WEST EPII;;-16.89;-168.3;-16.89;-168.3;;;OUTCROP;;;SUBAERIAL;VOLCANIC ROCK;ANKARAMITE;;LAVA;;;;;;;;INCLUSION;;;;;;;MINERAL INCLUSION;;AL-SPINEL;;OLIVINE;FALSE;;;0.23;55.74;0.5;;;;12.71;;13.53;;18;0.13;;;0.1;0.09;;;;;;;;;;;;;;;;;;;;;;;;;;;;;;;;;;;;;;;;;;;;;;;;;;;;;;;;;;;;;;;;;;;;;;;;;;;;;;;;;;;;;;;;;;;;;;;;;;;;;;;;;;;;;;;;;;;;;;;;;;;;;;;;;;;;;;;;;;;;;;;;;;;;;;;;;;;;;;;;;;;;;;;;;;;;;;;;;;;;;;;;;;;;;;;;;;;;;;;;;;;;;;;;;;;;;;;;;;;;;;;;;;;;;;;;;;;;;;;;;;;;;;;;;;;;;;;;;;;;;;;;;;;;;;;;;;;;;;;;;;;;;;;;;;;;;;;;;;;;;;;;
1995;[3730] PASQUA F. N. (1995);samp. 71041;;NEW HEBRIDES ARC - VANUATU ARCHIPELAGO / CENTRAL NEW HEBRIDES ARC / EPI / WEST EPII;;-16.89;-168.3;-16.89;-168.3;;;OUTCROP;;;SUBAERIAL;VOLCANIC ROCK;ANKARAMITE;;LAVA;;;;;;;;INCLUSION;;;;;;;MINERAL INCLUSION;;AL-SPINEL;;OLIVINE;FALSE;;;0.48;43.75;7.65;;;;16.92;;16.86;;14.4;0.23;;;0.13;0.24;;;;;;;;;;;;;;;;;;;;;;;;;;;;;;;;;;;;;;;;;;;;;;;;;;;;;;;;;;;;;;;;;;;;;;;;;;;;;;;;;;;;;;;;;;;;;;;;;;;;;;;;;;;;;;;;;;;;;;;;;;;;;;;;;;;;;;;;;;;;;;;;;;;;;;;;;;;;;;;;;;;;;;;;;;;;;;;;;;;;;;;;;;;;;;;;;;;;;;;;;;;;;;;;;;;;;;;;;;;;;;;;;;;;;;;;;;;;;;;;;;;;;;;;;;;;;;;;;;;;;;;;;;;;;;;;;;;;;;;;;;;;;;;;;;;;;;;;;;;;;;;;
1995;[3730] PASQUA F. N. (1995);samp. 67424;;SUNDA ARC / SUNDA ARC / BALI / BATUR;;-8.24;115.38;-8.24;115.38;;;OUTCROP;;;SUBAERIAL;VOLCANIC ROCK;ANKARAMITE;;LAVA;;;;;;;;INCLUSION;;;;;;;MINERAL INCLUSION;;AL-SPINEL;;OLIVINE;FALSE;;;0.56;10.95;48.84;;;;11.27;;18.22;;10.19;0.33;;;0.17;0.09;;;;;;;;;;;;;;;;;;;;;;;;;;;;;;;;;;;;;;;;;;;;;;;;;;;;;;;;;;;;;;;;;;;;;;;;;;;;;;;;;;;;;;;;;;;;;;;;;;;;;;;;;;;;;;;;;;;;;;;;;;;;;;;;;;;;;;;;;;;;;;;;;;;;;;;;;;;;;;;;;;;;;;;;;;;;;;;;;;;;;;;;;;;;;;;;;;;;;;;;;;;;;;;;;;;;;;;;;;;;;;;;;;;;;;;;;;;;;;;;;;;;;;;;;;;;;;;;;;;;;;;;;;;;;;;;;;;;;;;;;;;;;;;;;;;;;;;;;;;;;;;;
1995;[3730] PASQUA F. N. (1995);samp. 67424;;SUNDA ARC / SUNDA ARC / BALI / BATUR;;-8.24;115.38;-8.24;115.38;;;OUTCROP;;;SUBAERIAL;VOLCANIC ROCK;ANKARAMITE;;LAVA;;;;;;;;INCLUSION;;;;;;;MINERAL INCLUSION;;AL-SPINEL;;OLIVINE;FALSE;;;0.97;38.59;23.51;;;;6.6;;15.17;;15.44;0.15;;;0.29;0.09;;;;;;;;;;;;;;;;;;;;;;;;;;;;;;;;;;;;;;;;;;;;;;;;;;;;;;;;;;;;;;;;;;;;;;;;;;;;;;;;;;;;;;;;;;;;;;;;;;;;;;;;;;;;;;;;;;;;;;;;;;;;;;;;;;;;;;;;;;;;;;;;;;;;;;;;;;;;;;;;;;;;;;;;;;;;;;;;;;;;;;;;;;;;;;;;;;;;;;;;;;;;;;;;;;;;;;;;;;;;;;;;;;;;;;;;;;;;;;;;;;;;;;;;;;;;;;;;;;;;;;;;;;;;;;;;;;;;;;;;;;;;;;;;;;;;;;;;;;;;;;;;
1995;[3730] PASQUA F. N. (1995);samp. 67424;;SUNDA ARC / SUNDA ARC / BALI / BATUR;;-8.24;115.38;-8.24;115.38;;;OUTCROP;;;SUBAERIAL;VOLCANIC ROCK;ANKARAMITE;;LAVA;;;;;;;;INCLUSION;;;;;;;MINERAL INCLUSION;;AL-SPINEL;;OLIVINE;FALSE;;;0.47;9.67;48.07;;;;13.26;;20.76;;8.42;0.42;;;0.15;0.2;;;;;;;;;;;;;;;;;;;;;;;;;;;;;;;;;;;;;;;;;;;;;;;;;;;;;;;;;;;;;;;;;;;;;;;;;;;;;;;;;;;;;;;;;;;;;;;;;;;;;;;;;;;;;;;;;;;;;;;;;;;;;;;;;;;;;;;;;;;;;;;;;;;;;;;;;;;;;;;;;;;;;;;;;;;;;;;;;;;;;;;;;;;;;;;;;;;;;;;;;;;;;;;;;;;;;;;;;;;;;;;;;;;;;;;;;;;;;;;;;;;;;;;;;;;;;;;;;;;;;;;;;;;;;;;;;;;;;;;;;;;;;;;;;;;;;;;;;;;;;;;;
1995;[3730] PASQUA F. N. (1995);samp. 67424;;SUNDA ARC / SUNDA ARC / BALI / BATUR;;-8.24;115.38;-8.24;115.38;;;OUTCROP;;;SUBAERIAL;VOLCANIC ROCK;ANKARAMITE;;LAVA;;;;;;;;INCLUSION;;;;;;;MINERAL INCLUSION;;AL-SPINEL;;OLIVINE;FALSE;;;0.04;64.88;0.44;;;;3.4;;9.64;;21.01;0.14;;;0.27;0.25;;;;;;;;;;;;;;;;;;;;;;;;;;;;;;;;;;;;;;;;;;;;;;;;;;;;;;;;;;;;;;;;;;;;;;;;;;;;;;;;;;;;;;;;;;;;;;;;;;;;;;;;;;;;;;;;;;;;;;;;;;;;;;;;;;;;;;;;;;;;;;;;;;;;;;;;;;;;;;;;;;;;;;;;;;;;;;;;;;;;;;;;;;;;;;;;;;;;;;;;;;;;;;;;;;;;;;;;;;;;;;;;;;;;;;;;;;;;;;;;;;;;;;;;;;;;;;;;;;;;;;;;;;;;;;;;;;;;;;;;;;;;;;;;;;;;;;;;;;;;;;;;
1995;[3730] PASQUA F. N. (1995);samp. 71041;;NEW HEBRIDES ARC - VANUATU ARCHIPELAGO / CENTRAL NEW HEBRIDES ARC / EPI / WEST EPII;;-16.89;-168.3;-16.89;-168.3;;;OUTCROP;;;SUBAERIAL;VOLCANIC ROCK;ANKARAMITE;;LAVA;;;;;;;;INCLUSION;;;;;;;MINERAL INCLUSION;;CHROME-SPINEL;;OLIVINE;FALSE;;;0.25;8.52;56.18;;;;7.62;;16.01;;11.26;0.34;;;0.12;0;;;;;;;;;;;;;;;;;;;;;;;;;;;;;;;;;;;;;;;;;;;;;;;;;;;;;;;;;;;;;;;;;;;;;;;;;;;;;;;;;;;;;;;;;;;;;;;;;;;;;;;;;;;;;;;;;;;;;;;;;;;;;;;;;;;;;;;;;;;;;;;;;;;;;;;;;;;;;;;;;;;;;;;;;;;;;;;;;;;;;;;;;;;;;;;;;;;;;;;;;;;;;;;;;;;;;;;;;;;;;;;;;;;;;;;;;;;;;;;;;;;;;;;;;;;;;;;;;;;;;;;;;;;;;;;;;;;;;;;;;;;;;;;;;;;;;;;;;;;;;;;;
1995;[3730] PASQUA F. N. (1995);samp. 67424;;SUNDA ARC / SUNDA ARC / BALI / BATUR;;-8.24;115.38;-8.24;115.38;;;OUTCROP;;;SUBAERIAL;VOLCANIC ROCK;ANKARAMITE;;LAVA;;;;;;;;INCLUSION;;;;;;;MINERAL INCLUSION;;CHROME-SPINEL;;OLIVINE;FALSE;;;0.51;9.7;48.25;;;;12.26;;18.66;;9.66;0.17;;;0.03;0.09;;;;;;;;;;;;;;;;;;;;;;;;;;;;;;;;;;;;;;;;;;;;;;;;;;;;;;;;;;;;;;;;;;;;;;;;;;;;;;;;;;;;;;;;;;;;;;;;;;;;;;;;;;;;;;;;;;;;;;;;;;;;;;;;;;;;;;;;;;;;;;;;;;;;;;;;;;;;;;;;;;;;;;;;;;;;;;;;;;;;;;;;;;;;;;;;;;;;;;;;;;;;;;;;;;;;;;;;;;;;;;;;;;;;;;;;;;;;;;;;;;;;;;;;;;;;;;;;;;;;;;;;;;;;;;;;;;;;;;;;;;;;;;;;;;;;;;;;;;;;;;;;
1995;[3730] PASQUA F. N. (1995);samp. 31541;;NEW HEBRIDES ARC - VANUATU ARCHIPELAGO / BANKS ISLANDS / MERELAVA / MERELAVA;;-14.45;168;-14.45;168;;;OUTCROP;;;SUBAERIAL;VOLCANIC ROCK;ANKARAMITE;;LAVA;;;;;;;;INCLUSION;;;;;;;MINERAL INCLUSION;;CHROME-SPINEL;;OLIVINE;FALSE;;;0.25;9.75;47.73;;;;13.85;;18.57;;9.56;0.52;;;0.03;0.02;;;;;;;;;;;;;;;;;;;;;;;;;;;;;;;;;;;;;;;;;;;;;;;;;;;;;;;;;;;;;;;;;;;;;;;;;;;;;;;;;;;;;;;;;;;;;;;;;;;;;;;;;;;;;;;;;;;;;;;;;;;;;;;;;;;;;;;;;;;;;;;;;;;;;;;;;;;;;;;;;;;;;;;;;;;;;;;;;;;;;;;;;;;;;;;;;;;;;;;;;;;;;;;;;;;;;;;;;;;;;;;;;;;;;;;;;;;;;;;;;;;;;;;;;;;;;;;;;;;;;;;;;;;;;;;;;;;;;;;;;;;;;;;;;;;;;;;;;;;;;;;;
1995;[3730] PASQUA F. N. (1995);samp. 71046;;NEW HEBRIDES ARC - VANUATU ARCHIPELAGO / CENTRAL NEW HEBRIDES ARC / EPI / WEST EPII;;-16.89;-168.3;-16.89;-168.3;;;OUTCROP;;;SUBAERIAL;VOLCANIC ROCK;ANKARAMITE;;LAVA;;;;;;;;INCLUSION;;;;;;;MINERAL INCLUSION;;SPINEL;;MELT;FALSE;;;0.18;57.75;1.94;;;;8.43;;14.27;;17.61;0.14;;;0.15;0.19;;;;;;;;;;;;;;;;;;;;;;;;;;;;;;;;;;;;;;;;;;;;;;;;;;;;;;;;;;;;;;;;;;;;;;;;;;;;;;;;;;;;;;;;;;;;;;;;;;;;;;;;;;;;;;;;;;;;;;;;;;;;;;;;;;;;;;;;;;;;;;;;;;;;;;;;;;;;;;;;;;;;;;;;;;;;;;;;;;;;;;;;;;;;;;;;;;;;;;;;;;;;;;;;;;;;;;;;;;;;;;;;;;;;;;;;;;;;;;;;;;;;;;;;;;;;;;;;;;;;;;;;;;;;;;;;;;;;;;;;;;;;;;;;;;;;;;;;;;;;;;;;