Year;CITATION;SAMPLE NAME;UNIQUE_ID;LOCATION;LOCATION COMMENT;LATITUDE (MIN.);LONGITUDE (MIN.);LATITUDE (MAX.);LONGITUDE (MAX.);ELEVATION (MIN.);ELEVATION (MAX.);SAMPLING TECHNIQUE;DRILLING DEPTH (MIN.);DRILLING DEPTH (MAX.);LAND/SEA (SAMPLING);ROCK TYPE;ROCK NAME;ROCK TEXTURE;SAMPLE COMMENT;AGE (MIN.);AGE (MAX.);GEOLOGICAL AGE;GEOLOGICAL AGE PREFIX;ERUPTION YEAR;ALTERATION;ALTERATION TYPE;TYPE OF MATERIAL;MINERAL / COMPONENT;SPOT (MINERAL);CRYSTAL;RIM / CORE (MINERAL GRAINS);GRAIN SIZE;PRIMARY/SECONDARY;INCLUSION TYPE;SPOT (INCLUSION);MINERAL (INCLUSION);RIM / CORE (INCLUSION);HOSTMINERAL (INCLUSION);HEATING;HEATING TEMPERATURE (?C);SIO2(WT%);TIO2(WT%);AL2O3(WT%);CR2O3(WT%);V2O3(WT%);V2O5(WT%);FE2O3T(WT%);FE2O3(WT%);FEOT(WT%);FEO(WT%);CAO(WT%);MGO(WT%);MNO(WT%);BAO(WT%);SRO(WT%);NIO(WT%);ZNO(WT%);COO(WT%);K2O(WT%);;;;NA2O(WT%);;;;P2O5(WT%);H2O(WT%);H2OP(WT%);H2OM(WT%);CO2(WT%);F(WT%);CL(WT%);CL2(WT%);SO3(WT%);S(WT%);LOI(WT%);O(WT%);SI(WT%);AL(WT%);TI(WT%);FE(WT%);MG(WT%);MN(WT%);CA(WT%);K(WT%): altern. values or methods;;;;NA(WT%);CR(WT%);NI(WT%);HE(CCMSTP/G);HE3(CCMSTP/G);HE4(CCMSTP/G): altern. values or methods;;;;LI(PPM);BE(PPM);B(PPM);F(PPM);NE20(CCMSTP/G);NE22(CCMSTP/G);P(PPM);S(PPM);CL(PPM);AR36(CCMSTP/G);AR40(CCMSTP/G);AR40(MOL/G): altern. values or methods;;;;AR40(PPB);K(PPM);SC(PPM): altern. values or methods;;;;;;TI(PPM);V(PPM): altern. values or methods;;;;CR(PPM): altern. values or methods;;;;MN(PPM);FE(PPM);CO(PPM): altern. values or methods;;;;;;NI(PPM): altern. values or methods;;;;;;CU(PPM): altern. values or methods;;;;ZN(PPM): altern. values or methods;;;;GA(PPM): altern. values or methods;;;;GE(PPM);AS(PPM);KR84(CCMSTP/G);RB(PPM): altern. values or methods;;;;SR(PPM): altern. values or methods;;;;Y(PPM): altern. values or methods;;;;ZR(PPM): altern. values or methods;;;;NB(PPM): altern. values or methods;;;;MO(PPM);RU(PPB);RH(PPB);PD(PPB);IN(PPM);SN(PPM);SB(PPM);XE132(CCMSTP/G);CS(PPM);BA(PPM): altern. values or methods;;;;LA(PPM): altern. values or methods;;;;CE(PPM): altern. values or methods;;;;PR(PPM): altern. values or methods;;;;ND(PPM): altern. values or methods;;;;SM(PPM): altern. values or methods;;;;EU(PPM): altern. values or methods;;;;GD(PPM);TB(PPM): altern. values or methods;;;;DY(PPM);HO(PPM);ER(PPM);TM(PPM);YB(PPM): altern. values or methods;;;;LU(PPM);HF(PPM): altern. values or methods;;;;TA(PPM);W(PPM);RE(PPB): altern. values or methods;;;;RE(PPT);OS(PPB): altern. values or methods;;;;OS(PPT);IR(PPB);PT(PPB);AU(PPB);HG(PPB);TL(PPM);PB(PPM): altern. values or methods;;;;PB210_ACT(DPM/G);TH(PPM): altern. values or methods;;;;TH(PPB);U(PPM): altern. values or methods;;;;U(PPB);CO2(PPM);H2O(PPM);ND143_ND144;ND148_ND144;SM147_ND144;SR87_SR86;RB87_SR86;PB206_PB204: altern. values or methods;;;;PB206_PB207;PB206_PB208;PB207_PB204: altern. values or methods;;;;PB207_PB206;PB208_PB204: altern. values or methods;;;;PB208_PB206;OS187_OS186;OS187_OS188: altern. values or methods;;;;RE187_OS188: altern. values or methods;;;;HF176_HF177;HE3_HE4;HE3_HE4(R/R(A)): altern. values or methods;;;;HE4_HE3: altern. values or methods;;;;;;HE4_HE3(R/R(A)): altern. values or methods;;;;AR38_AR36;AR40_AR36;NE20_NE22;NE21_NE22;XE129_XE132;PB206_U238;PB207_U235;PB210_U238;TH232_U238;U238_PB204;D13C(VS SMOW);D17O(VS VSMOW);D18O(PER MIL);D18O(VS PDB);D18O(VS SMOW);D18O(VS VSMOW);D34S(VS CDT);D44_40CA(VS SRM915A);D56FE(VS IRMM-014);DD(VS SMOW);ALBITE(MOL%);ACMITE(MOL%);ANORTHITE(MOL%);ENSTATITE(MOL%);FAYALITE(MOL%);FORSTERITE(MOL%);FERROSILITE(MOL%);HEMATITE(MOL%);LARNITE(MOL%);ORTHOCLASE(MOL%);PSEUDOBROOKITE(MOL%);TEPHROITE(MOL%);ULVOSPINEL(MOL%);WOLLASTONITE(MOL%);AGE(KA);AGE(MA): altern. values or methods;;;;;;;;AGE_PB207_PB206(MA);AGE_PB207_U235(MA);AGE_PB206_U238(MA);
1995;[5861] DIEU J. J. (1995);samp. 144-874B-24R-4,11-15;;RALIK SEAMOUNT GROUP / WODEJEBATO GUYOT / SITE 874;HOLE 874B;12.0038;164.9398;12.0038;164.9398;-1386;-1386;DRILL HOLE ;;;SUBAQUATIC;VOLCANIC ROCK;ANKARAMITE;;;;;CRETACEOUS;;;;;MINERAL / COMPONENT (INCL. GROUNDMASS);OLIVINE;;PHENOCRYST;;;PRIMARY;;;;;;;;38.71;0;0.03;0.01;;;;;;18.52;0.31;42.56;0.26;;;0.18;;;;;;;;;;;;;;;;;;;;;;;;;;;;;;;;;;;;;;;;;;;;;;;;;;;;;;;;;;;;;;;;;;;;;;;;;;;;;;;;;;;;;;;;;;;;;;;;;;;;;;;;;;;;;;;;;;;;;;;;;;;;;;;;;;;;;;;;;;;;;;;;;;;;;;;;;;;;;;;;;;;;;;;;;;;;;;;;;;;;;;;;;;;;;;;;;;;;;;;;;;;;;;;;;;;;;;;;;;;;;;;;;;;;;;;;;;;;;;;;;;;;;;;;;;;;;;;;;;;;;;;;;;;;;;;;;;;;;;;;;;;;80.4;;;;;;;;;;;;;;;;;;;;;
1995;[5861] DIEU J. J. (1995);samp. 144-874B-24R-4,11-15;;RALIK SEAMOUNT GROUP / WODEJEBATO GUYOT / SITE 874;HOLE 874B;12.0038;164.9398;12.0038;164.9398;-1386;-1386;DRILL HOLE ;;;SUBAQUATIC;VOLCANIC ROCK;ANKARAMITE;;;;;CRETACEOUS;;;;;MINERAL / COMPONENT (INCL. GROUNDMASS);OLIVINE;;PHENOCRYST;;;PRIMARY;;;;;;;;38.84;0.02;0.05;0.04;;;;;;14.69;0.22;46.15;0.18;;;0.15;;;;;;;;;;;;;;;;;;;;;;;;;;;;;;;;;;;;;;;;;;;;;;;;;;;;;;;;;;;;;;;;;;;;;;;;;;;;;;;;;;;;;;;;;;;;;;;;;;;;;;;;;;;;;;;;;;;;;;;;;;;;;;;;;;;;;;;;;;;;;;;;;;;;;;;;;;;;;;;;;;;;;;;;;;;;;;;;;;;;;;;;;;;;;;;;;;;;;;;;;;;;;;;;;;;;;;;;;;;;;;;;;;;;;;;;;;;;;;;;;;;;;;;;;;;;;;;;;;;;;;;;;;;;;;;;;;;;;;;;;;;;84.8;;;;;;;;;;;;;;;;;;;;;
1995;[5861] DIEU J. J. (1995);samp. 144-874B-24R-4,11-15;;RALIK SEAMOUNT GROUP / WODEJEBATO GUYOT / SITE 874;HOLE 874B;12.0038;164.9398;12.0038;164.9398;-1386;-1386;DRILL HOLE ;;;SUBAQUATIC;VOLCANIC ROCK;ANKARAMITE;;;;;CRETACEOUS;;;;;MINERAL / COMPONENT (INCL. GROUNDMASS);OLIVINE;;PHENOCRYST;;;PRIMARY;;;;;;;;40.15;0;0.04;0.03;;;;;;13.76;0.34;46.5;0.2;;;0.19;;;;;;;;;;;;;;;;;;;;;;;;;;;;;;;;;;;;;;;;;;;;;;;;;;;;;;;;;;;;;;;;;;;;;;;;;;;;;;;;;;;;;;;;;;;;;;;;;;;;;;;;;;;;;;;;;;;;;;;;;;;;;;;;;;;;;;;;;;;;;;;;;;;;;;;;;;;;;;;;;;;;;;;;;;;;;;;;;;;;;;;;;;;;;;;;;;;;;;;;;;;;;;;;;;;;;;;;;;;;;;;;;;;;;;;;;;;;;;;;;;;;;;;;;;;;;;;;;;;;;;;;;;;;;;;;;;;;;;;;;;;;85.8;;;;;;;;;;;;;;;;;;;;;
1995;[5861] DIEU J. J. (1995);samp. 144-874A-84R-4,111-113;;RALIK SEAMOUNT GROUP / WODEJEBATO GUYOT / SITE 874;HOLE 874A;12.0036;164.9398;12.0036;164.9398;-1386;-1386;DRILL HOLE ;;;SUBAQUATIC;VOLCANIC ROCK;ANKARAMITE;;;;;CRETACEOUS;;;;;MINERAL / COMPONENT (INCL. GROUNDMASS);OLIVINE;;PHENOCRYST;;;PRIMARY;;;;;;;;39.26;0.02;0.07;0.03;;;;;;14.7;0.27;45.37;0.22;;;0.23;;;;;;;;;;;;;;;;;;;;;;;;;;;;;;;;;;;;;;;;;;;;;;;;;;;;;;;;;;;;;;;;;;;;;;;;;;;;;;;;;;;;;;;;;;;;;;;;;;;;;;;;;;;;;;;;;;;;;;;;;;;;;;;;;;;;;;;;;;;;;;;;;;;;;;;;;;;;;;;;;;;;;;;;;;;;;;;;;;;;;;;;;;;;;;;;;;;;;;;;;;;;;;;;;;;;;;;;;;;;;;;;;;;;;;;;;;;;;;;;;;;;;;;;;;;;;;;;;;;;;;;;;;;;;;;;;;;;;;;;;;;;84.6;;;;;;;;;;;;;;;;;;;;;
1995;[5861] DIEU J. J. (1995);samp. 144-874A-84R-4,111-113;;RALIK SEAMOUNT GROUP / WODEJEBATO GUYOT / SITE 874;HOLE 874A;12.0036;164.9398;12.0036;164.9398;-1386;-1386;DRILL HOLE ;;;SUBAQUATIC;VOLCANIC ROCK;ANKARAMITE;;;;;CRETACEOUS;;;;;MINERAL / COMPONENT (INCL. GROUNDMASS);OLIVINE;;PHENOCRYST;;;PRIMARY;;;;;;;;39.24;0.03;0.05;0.04;;;;;;14.83;0.28;45.26;0.2;;;0.22;;;;;;;;;;;;;;;;;;;;;;;;;;;;;;;;;;;;;;;;;;;;;;;;;;;;;;;;;;;;;;;;;;;;;;;;;;;;;;;;;;;;;;;;;;;;;;;;;;;;;;;;;;;;;;;;;;;;;;;;;;;;;;;;;;;;;;;;;;;;;;;;;;;;;;;;;;;;;;;;;;;;;;;;;;;;;;;;;;;;;;;;;;;;;;;;;;;;;;;;;;;;;;;;;;;;;;;;;;;;;;;;;;;;;;;;;;;;;;;;;;;;;;;;;;;;;;;;;;;;;;;;;;;;;;;;;;;;;;;;;;;;84.5;;;;;;;;;;;;;;;;;;;;;
1995;[5861] DIEU J. J. (1995);samp. 144-874B-90R-6,63-54;;RALIK SEAMOUNT GROUP / WODEJEBATO GUYOT / SITE 874;HOLE 874A;12.0036;164.9398;12.0036;164.9398;-1386;-1386;DRILL HOLE ;;;SUBAQUATIC;VOLCANIC ROCK;ANKARAMITE;;;;;CRETACEOUS;;;;;MINERAL / COMPONENT (INCL. GROUNDMASS);OLIVINE;;PHENOCRYST;;;PRIMARY;;;;;;;;39.26;0.01;0.05;0;;;;;;15.79;0.15;44.89;0.22;;;0.32;;;;;;;;;;;;;;;;;;;;;;;;;;;;;;;;;;;;;;;;;;;;;;;;;;;;;;;;;;;;;;;;;;;;;;;;;;;;;;;;;;;;;;;;;;;;;;;;;;;;;;;;;;;;;;;;;;;;;;;;;;;;;;;;;;;;;;;;;;;;;;;;;;;;;;;;;;;;;;;;;;;;;;;;;;;;;;;;;;;;;;;;;;;;;;;;;;;;;;;;;;;;;;;;;;;;;;;;;;;;;;;;;;;;;;;;;;;;;;;;;;;;;;;;;;;;;;;;;;;;;;;;;;;;;;;;;;;;;;;;;;;;83.5;;;;;;;;;;;;;;;;;;;;;
1995;[5861] DIEU J. J. (1995);samp. 144-874B-90R-6,63-54;;RALIK SEAMOUNT GROUP / WODEJEBATO GUYOT / SITE 874;HOLE 874A;12.0036;164.9398;12.0036;164.9398;-1386;-1386;DRILL HOLE ;;;SUBAQUATIC;VOLCANIC ROCK;ANKARAMITE;;;;;CRETACEOUS;;;;;MINERAL / COMPONENT (INCL. GROUNDMASS);OLIVINE;;PHENOCRYST;;;PRIMARY;;;;;;;;37.73;0.02;0.03;0.01;;;;;;26.11;0.2;37.53;0.36;;;0.07;;;;;;;;;;;;;;;;;;;;;;;;;;;;;;;;;;;;;;;;;;;;;;;;;;;;;;;;;;;;;;;;;;;;;;;;;;;;;;;;;;;;;;;;;;;;;;;;;;;;;;;;;;;;;;;;;;;;;;;;;;;;;;;;;;;;;;;;;;;;;;;;;;;;;;;;;;;;;;;;;;;;;;;;;;;;;;;;;;;;;;;;;;;;;;;;;;;;;;;;;;;;;;;;;;;;;;;;;;;;;;;;;;;;;;;;;;;;;;;;;;;;;;;;;;;;;;;;;;;;;;;;;;;;;;;;;;;;;;;;;;;;71.9;;;;;;;;;;;;;;;;;;;;;
1995;[5861] DIEU J. J. (1995);samp. 144-874B-24R-1,12-16;;RALIK SEAMOUNT GROUP / WODEJEBATO GUYOT / SITE 874;HOLE 874B;12.0038;164.9398;12.0038;164.9398;-1386;-1386;DRILL HOLE ;;;SUBAQUATIC;VOLCANIC ROCK;ANKARAMITE;;;;;CRETACEOUS;;;;;MINERAL / COMPONENT (INCL. GROUNDMASS);CLINOPYROXENE;;PHENOCRYST;CORE;;PRIMARY;;;;;;;;;;;;;;;;;;;;;;;;;;;;;;;;;;;;;;;;;;;;;;;;;;;;;;;;;;;;;;;;;;;;;;;;;;;;;;;;;;;;;;;;;8230;380;SIMS;;;6270;SIMS;;;;;;;;;;;;;;;;;;;;;;;;;;;;;;;;;;;;43.7;SIMS;;;13.5;SIMS;;;52.6;SIMS;;;;;;;;;;;;;;;;;;;;0.87;SIMS;;;3.26;SIMS;;;;;;;4.25;SIMS;;;1.6;SIMS;;;0.61;SIMS;;;;;;;;1.81;;0.82;;0.74;SIMS;;;;;;;;;;;;;;;;;;;;;;;;;;;;;;;;;;;;;;;;;;;;;;;;;;;;;;;;;;;;;;;;;;;;;;;;;;;;;;;;;;;;;;;;;;;;;;;;;;;;;;;;;;;;;;;;;;;;;;;;;;;;;;;;;;;;;;
1995;[5861] DIEU J. J. (1995);samp. 144-874B-24R-1,12-16;;RALIK SEAMOUNT GROUP / WODEJEBATO GUYOT / SITE 874;HOLE 874B;12.0038;164.9398;12.0038;164.9398;-1386;-1386;DRILL HOLE ;;;SUBAQUATIC;VOLCANIC ROCK;ANKARAMITE;;;;;CRETACEOUS;;;;;MINERAL / COMPONENT (INCL. GROUNDMASS);CLINOPYROXENE;;PHENOCRYST;RIM;1.0 CM;PRIMARY;;;;;;;;;;;;;;;;;;;;;;;;;;;;;;;;;;;;;;;;;;;;;;;;;;;;;;;;;;;;;;;;;;;;;;;;;;;;;;;;;;;;;;;;;2910;200;SIMS;;;6570;SIMS;;;;;;;;;;;;;;;;;;;;;;;;;;;;;;;;;;;;26;SIMS;;;6;SIMS;;;11.1;SIMS;;;;;;;;;;;;;;;;;;;;0.41;SIMS;;;1.29;SIMS;;;;;;;2.31;SIMS;;;1.07;SIMS;;;0.37;SIMS;;;;;;;;0.59;;0.25;;0.39;SIMS;;;;;;;;;;;;;;;;;;;;;;;;;;;;;;;;;;;;;;;;;;;;;;;;;;;;;;;;;;;;;;;;;;;;;;;;;;;;;;;;;;;;;;;;;;;;;;;;;;;;;;;;;;;;;;;;;;;;;;;;;;;;;;;;;;;;;;
1995;[5861] DIEU J. J. (1995);samp. 144-874B-24R-1,12-16;;RALIK SEAMOUNT GROUP / WODEJEBATO GUYOT / SITE 874;HOLE 874B;12.0038;164.9398;12.0038;164.9398;-1386;-1386;DRILL HOLE ;;;SUBAQUATIC;VOLCANIC ROCK;ANKARAMITE;;;;;CRETACEOUS;;;;;MINERAL / COMPONENT (INCL. GROUNDMASS);CLINOPYROXENE;;PHENOCRYST;CORE;1.0 CM;PRIMARY;;;;;;;;;;;;;;;;;;;;;;;;;;;;;;;;;;;;;;;;;;;;;;;;;;;;;;;;;;;;;;;;;;;;;;;;;;;;;;;;;;;;;;;;;3660;230;SIMS;;;6300;SIMS;;;;;;;;;;;;;;;;;;;;;;;;;;;;;;;;;;;;34.6;SIMS;;;7;SIMS;;;16.8;SIMS;;;;;;;;;;;;;;;;;;;;0.47;SIMS;;;1.5;SIMS;;;;;;;1.99;SIMS;;;0.8;SIMS;;;0.37;SIMS;;;;;;;;0.96;;0.56;;0.38;SIMS;;;;;;;;;;;;;;;;;;;;;;;;;;;;;;;;;;;;;;;;;;;;;;;;;;;;;;;;;;;;;;;;;;;;;;;;;;;;;;;;;;;;;;;;;;;;;;;;;;;;;;;;;;;;;;;;;;;;;;;;;;;;;;;;;;;;;;
1995;[5861] DIEU J. J. (1995);samp. 144-874B-24R-4,11-15;;RALIK SEAMOUNT GROUP / WODEJEBATO GUYOT / SITE 874;HOLE 874B;12.0038;164.9398;12.0038;164.9398;-1386;-1386;DRILL HOLE ;;;SUBAQUATIC;VOLCANIC ROCK;ANKARAMITE;;;;;CRETACEOUS;;;;;MINERAL / COMPONENT (INCL. GROUNDMASS);CLINOPYROXENE;;PHENOCRYST;;;PRIMARY;;;;;;;;;;;;;;;;;;;;;;;;;;;;;;;;;;;;;;;;;;;;;;;;;;;;;;;;;;;;;;;;;;;;;;;;;;;;;;;;;;;;;;;;;7940;430;SIMS;;;5500;SIMS;;;;;;;;;;;;;;;;;;;;;;;;;;;;;;;;;;;;45.7;SIMS;;;14.1;SIMS;;;65.4;SIMS;;;;;;;;;;;;;;;;;;;;3.01;SIMS;;;10.7;SIMS;;;;;;;9.17;SIMS;;;3.03;SIMS;;;1.09;SIMS;;;;;;;;2.8;;1.65;;1.05;SIMS;;;;;;;;;;;;;;;;;;;;;;;;;;;;;;;;;;;;;;;;;;;;;;;;;;;;;;;;;;;;;;;;;;;;;;;;;;;;;;;;;;;;;;;;;;;;;;;;;;;;;;;;;;;;;;;;;;;;;;;;;;;;;;;;;;;;;;
1995;[5861] DIEU J. J. (1995);samp. 144-874B-24R-4,11-15;;RALIK SEAMOUNT GROUP / WODEJEBATO GUYOT / SITE 874;HOLE 874B;12.0038;164.9398;12.0038;164.9398;-1386;-1386;DRILL HOLE ;;;SUBAQUATIC;VOLCANIC ROCK;ANKARAMITE;;;;;CRETACEOUS;;;;;MINERAL / COMPONENT (INCL. GROUNDMASS);CLINOPYROXENE;;XENOCRYST;;5.0 MM;PRIMARY;;;;;;;;;;;;;;;;;;;;;;;;;;;;;;;;;;;;;;;;;;;;;;;;;;;;;;;;;;;;;;;;;;;;;;;;;;;;;;;;;;;;;;;;;10430;550;SIMS;;;2690;SIMS;;;;;;;;;;;;;;;;;;;;;;;;;;;;;;;;;;;;41.2;SIMS;;;20.8;SIMS;;;71.2;SIMS;;;;;;;;;;;;;;;;;;;;3.2;SIMS;;;11.4;SIMS;;;;;;;9.91;SIMS;;;3.2;SIMS;;;1.39;SIMS;;;;;;;;3.99;;1.74;;1.37;SIMS;;;;;;;;;;;;;;;;;;;;;;;;;;;;;;;;;;;;;;;;;;;;;;;;;;;;;;;;;;;;;;;;;;;;;;;;;;;;;;;;;;;;;;;;;;;;;;;;;;;;;;;;;;;;;;;;;;;;;;;;;;;;;;;;;;;;;;
1995;[5862] CHRISTIE D. M. (1995);samp. 144-874B-24R-4,26-32;;RALIK SEAMOUNT GROUP / WODEJEBATO GUYOT / SITE 874;HOLE 874B;12.0038;164.9398;12.0038;164.9398;-1386;-1386;DRILL HOLE ;;;SUBAQUATIC;VOLCANIC ROCK;ANKARAMITE;HIGHLY PORPHYRITIC;FLOW;;;;;;;;WHOLE ROCK;;;;;;;;;;;;;;46.41;1.74;13.16;;;;11.65;;;;10.71;13.48;0.17;;;;;;0.76;XRF;;;1.93;XRF;;;0.23;;;;;;;;;;2.11;;;;;;;;;;;;;;;;;;;;;;;;;;;;;;;;;;;;;;;;;;;;;;;;;;;;;;;;;;;;;;;;;;;;;;;;;;;;;;;;;;;;;;;;;;;;;;;;;;;;;;;;;;;;;;;;;;;;;;;;;;;;;;;;;;;;;;;;;;;;;;;;;;;;;;;;;;;;;;;;;;;;;;;;;;;;;;;;;;;;;;;;;;;;;;;;;;;;;;;;;;;;;;;;;;;;;;;;;;;;;;;;;;;;;;;;;;;;;;;;;;;;;;;;;;;;;;;;;;;;;;;;;;;;;;;;;;;;;;;;;;;;
2003;[5941] LARSEN L. M. (2003);samp. 264091;54575;NORTH ATLANTIC IGNEOUS PROVINCE (NAIP) / WEST GREENLAND / VAIGAT FORMATION, ORDLINGASSOQ MEMBER;DISKO (QEGERTARSSUAQ);70.07416;-53.5353;70.07416;-53.5353;700;700;OUTCROP;;;SUBAERIAL;VOLCANIC ROCK;ANKARAMITE;;;60000000;60000000;PALEOCENE;;;;;MINERAL / COMPONENT (INCL. GROUNDMASS);CLINOPYROXENE;;PHENOCRYST;CORE;;PRIMARY;;;;;;;;50.81;0.82;3.4;0.5;;;;0.92;;3.69;22.91;15.49;0;;;0.01;;;;;;;0.18;EMP (EPMA);;;;;;;;;;;;;;;;;;;;;;;;;;;;;;;;;;;;;;;;;;;;;;;;;;;;;;;;;;;;;;;;;;;;;;;;;;;;;;;;;;;;;;;;;;;;;;;;;;;;;;;;;;;;;;;;;;;;;;;;;;;;;;;;;;;;;;;;;;;;;;;;;;;;;;;;;;;;;;;;;;;;;;;;;;;;;;;;;;;;;;;;;;;;;;;;;;;;;;;;;;;;;;;;;;;;;;;;;;;;;;;;;;;;;;;;;;;;;;;;;;;;;;;;;;;;;;;;;;;;;;;;;;;;;;;;;;;;;;;;;;;;;;;;;;;;;;;;;
2003;[5941] LARSEN L. M. (2003);samp. 264091;54575;NORTH ATLANTIC IGNEOUS PROVINCE (NAIP) / WEST GREENLAND / VAIGAT FORMATION, ORDLINGASSOQ MEMBER;DISKO (QEGERTARSSUAQ);70.07416;-53.5353;70.07416;-53.5353;700;700;OUTCROP;;;SUBAERIAL;VOLCANIC ROCK;ANKARAMITE;;;60000000;60000000;PALEOCENE;;;;;MINERAL / COMPONENT (INCL. GROUNDMASS);CLINOPYROXENE;;PHENOCRYST;INTERMEDIATE ZONE;;PRIMARY;;;;;;;;46.57;2.15;7.73;0.03;;;;1.64;;6.06;22.31;12.07;0;;;0.03;;;;;;;0.31;EMP (EPMA);;;;;;;;;;;;;;;;;;;;;;;;;;;;;;;;;;;;;;;;;;;;;;;;;;;;;;;;;;;;;;;;;;;;;;;;;;;;;;;;;;;;;;;;;;;;;;;;;;;;;;;;;;;;;;;;;;;;;;;;;;;;;;;;;;;;;;;;;;;;;;;;;;;;;;;;;;;;;;;;;;;;;;;;;;;;;;;;;;;;;;;;;;;;;;;;;;;;;;;;;;;;;;;;;;;;;;;;;;;;;;;;;;;;;;;;;;;;;;;;;;;;;;;;;;;;;;;;;;;;;;;;;;;;;;;;;;;;;;;;;;;;;;;;;;;;;;;;;
2003;[5941] LARSEN L. M. (2003);samp. 264091;54575;NORTH ATLANTIC IGNEOUS PROVINCE (NAIP) / WEST GREENLAND / VAIGAT FORMATION, ORDLINGASSOQ MEMBER;DISKO (QEGERTARSSUAQ);70.07416;-53.5353;70.07416;-53.5353;700;700;OUTCROP;;;SUBAERIAL;VOLCANIC ROCK;ANKARAMITE;;;60000000;60000000;PALEOCENE;;;;;MINERAL / COMPONENT (INCL. GROUNDMASS);CLINOPYROXENE;;PHENOCRYST;INTERMEDIATE ZONE;;PRIMARY;;;;;;;;49.63;0.88;5.16;0.66;;;;1.8;;2.82;23.28;14.67;0.14;;;0;;;;;;;0.26;EMP (EPMA);;;;;;;;;;;;;;;;;;;;;;;;;;;;;;;;;;;;;;;;;;;;;;;;;;;;;;;;;;;;;;;;;;;;;;;;;;;;;;;;;;;;;;;;;;;;;;;;;;;;;;;;;;;;;;;;;;;;;;;;;;;;;;;;;;;;;;;;;;;;;;;;;;;;;;;;;;;;;;;;;;;;;;;;;;;;;;;;;;;;;;;;;;;;;;;;;;;;;;;;;;;;;;;;;;;;;;;;;;;;;;;;;;;;;;;;;;;;;;;;;;;;;;;;;;;;;;;;;;;;;;;;;;;;;;;;;;;;;;;;;;;;;;;;;;;;;;;;;
2003;[5941] LARSEN L. M. (2003);samp. 264091;54575;NORTH ATLANTIC IGNEOUS PROVINCE (NAIP) / WEST GREENLAND / VAIGAT FORMATION, ORDLINGASSOQ MEMBER;DISKO (QEGERTARSSUAQ);70.07416;-53.5353;70.07416;-53.5353;700;700;OUTCROP;;;SUBAERIAL;VOLCANIC ROCK;ANKARAMITE;;;60000000;60000000;PALEOCENE;;;;;MINERAL / COMPONENT (INCL. GROUNDMASS);CLINOPYROXENE;;PHENOCRYST;RIM;;PRIMARY;;;;;;;;49.55;1.27;5.48;0.03;;;;0.78;;5.37;22.17;14.19;0.12;;;0;;;;;;;0.26;EMP (EPMA);;;;;;;;;;;;;;;;;;;;;;;;;;;;;;;;;;;;;;;;;;;;;;;;;;;;;;;;;;;;;;;;;;;;;;;;;;;;;;;;;;;;;;;;;;;;;;;;;;;;;;;;;;;;;;;;;;;;;;;;;;;;;;;;;;;;;;;;;;;;;;;;;;;;;;;;;;;;;;;;;;;;;;;;;;;;;;;;;;;;;;;;;;;;;;;;;;;;;;;;;;;;;;;;;;;;;;;;;;;;;;;;;;;;;;;;;;;;;;;;;;;;;;;;;;;;;;;;;;;;;;;;;;;;;;;;;;;;;;;;;;;;;;;;;;;;;;;;;
2003;[5941] LARSEN L. M. (2003);samp. 264091;54575;NORTH ATLANTIC IGNEOUS PROVINCE (NAIP) / WEST GREENLAND / VAIGAT FORMATION, ORDLINGASSOQ MEMBER;DISKO (QEGERTARSSUAQ);70.07416;-53.5353;70.07416;-53.5353;700;700;OUTCROP;;;SUBAERIAL;VOLCANIC ROCK;ANKARAMITE;;;60000000;60000000;PALEOCENE;;;;;MINERAL / COMPONENT (INCL. GROUNDMASS);CLINOPYROXENE;;MICROPHENOCRYST;CORE;;PRIMARY;;;;;;;;45.42;2.25;6.58;0;;;;8.63;;0.41;22.43;13.41;0;;;0;;;;;;;0.71;EMP (EPMA);;;;;;;;;;;;;;;;;;;;;;;;;;;;;;;;;;;;;;;;;;;;;;;;;;;;;;;;;;;;;;;;;;;;;;;;;;;;;;;;;;;;;;;;;;;;;;;;;;;;;;;;;;;;;;;;;;;;;;;;;;;;;;;;;;;;;;;;;;;;;;;;;;;;;;;;;;;;;;;;;;;;;;;;;;;;;;;;;;;;;;;;;;;;;;;;;;;;;;;;;;;;;;;;;;;;;;;;;;;;;;;;;;;;;;;;;;;;;;;;;;;;;;;;;;;;;;;;;;;;;;;;;;;;;;;;;;;;;;;;;;;;;;;;;;;;;;;;;
2003;[5941] LARSEN L. M. (2003);samp. 264091;54575;NORTH ATLANTIC IGNEOUS PROVINCE (NAIP) / WEST GREENLAND / VAIGAT FORMATION, ORDLINGASSOQ MEMBER;DISKO (QEGERTARSSUAQ);70.07416;-53.5353;70.07416;-53.5353;700;700;OUTCROP;;;SUBAERIAL;VOLCANIC ROCK;ANKARAMITE;;;60000000;60000000;PALEOCENE;;;;;MINERAL / COMPONENT (INCL. GROUNDMASS);CLINOPYROXENE;;MICROPHENOCRYST;RIM;;PRIMARY;;;;;;;;49.4;1.07;4.87;0.45;;;;2.51;;3.04;22.94;14.64;0;;;0.03;;;;;;;0.32;EMP (EPMA);;;;;;;;;;;;;;;;;;;;;;;;;;;;;;;;;;;;;;;;;;;;;;;;;;;;;;;;;;;;;;;;;;;;;;;;;;;;;;;;;;;;;;;;;;;;;;;;;;;;;;;;;;;;;;;;;;;;;;;;;;;;;;;;;;;;;;;;;;;;;;;;;;;;;;;;;;;;;;;;;;;;;;;;;;;;;;;;;;;;;;;;;;;;;;;;;;;;;;;;;;;;;;;;;;;;;;;;;;;;;;;;;;;;;;;;;;;;;;;;;;;;;;;;;;;;;;;;;;;;;;;;;;;;;;;;;;;;;;;;;;;;;;;;;;;;;;;;;
1982;[6092] FAWCETT J. J. (1982);samp. WR3352;;NORTH ATLANTIC IGNEOUS PROVINCE (NAIP) / EAST GREENLAND / BLOSSEVILLE KYST PLATEAU LAVAS;KANGERDLUGSSUAQ, TRIANGULAR NUNATAK;68.1;-32.1;68.5;-33.1;;;OUTCROP;;;SUBAERIAL;VOLCANIC ROCK;ANKARAMITE;;;;;;;;;;WHOLE ROCK;;;;;;;;;;;;;;44.7;3.84;7.88;;;;;6.53;;6.52;12.08;11.53;0.19;;;;;;1.94;XRF;;;1.94;XRF;;;0.63;;;;;;;;;;2.85;;;;;;;;;;;;;;;;;;;;;;;;;;;;;;;;;;;;;;;;;;;;;;;;;;;;;;;;;;;;;;;;;;;;;;;;;;;;;;;;;;;38;XRF;;;902;XRF;;;19.5;XRF;;;275;XRF;;;;;;;;;;;;;;;;;;;;;;;;;;;;;;;;;;;;;;;;;;;;;;;;;;;;;;;;;;;;;;;;;;;;;;;;;;;;;;;;;;;;5.75;XRF;;;;6.9;XRF;;;;;;;;;;;;;;;;;;;;;;;;;;;;;;;;;;;;;;;;;;;;;;;;;;;;;;;;;;;;;;;;;;;;;;;;;;;;;;;;;;;;;;;;;;;;;;;;;;
2003;[6124] SPANDLER C. J. (2003);samp. 32802;;NEW ZEALAND / SOUTH ISLAND / SOUTHLAND / GREENHILLS COMPLEX;NORTHERN INTRUSION;-46.52;168.23;-46.54;168.25;;;OUTCROP;;;SUBAERIAL;VOLCANIC ROCK;ANKARAMITE;;;;;;;;;;WHOLE ROCK;;;;;;;;;;;;;;48.94;0.41;9.55;;;;;;10.16;;12.37;16.18;0.19;;;;;;0.22;XRF;;;1.09;XRF;;;0.03;;;;;;;;;0.02;1.09;;;;;;;;;;;;;;;;;;;;;;;;;;;;;;;;;;;;;;;54.41;ICPMS_LA;;;;;2396;228;ICPMS_LA;;;950;XRF;;;;;;;;;;;254;XRF;;;;;;;;;;;;;;;;;;;;4;ICPMS_LA;;;91.7;ICPMS_LA;;;10.38;ICPMS_LA;;;14.92;ICPMS_LA;;;0.49;ICPMS_LA;;;;;;;;;;;0.6;43;ICPMS_LA;;;1.06;ICPMS_LA;;;2.37;ICPMS_LA;;;;;;;2.46;ICPMS_LA;;;0.83;ICPMS_LA;;;0.32;ICPMS_LA;;;1.43;;;;;1.79;;1.16;;1.14;ICPMS_LA;;;0.19;0.54;ICPMS_LA;;;0.05;;;;;;;;;;;;;;;;;2.3;XRF;;;;0.14;ICPMS_LA;;;;0.09;ICPMS_LA;;;;;;;;;;;;;;;;;;;;;;;;;;;;;;;;;;;;;;;;;;;;;;;;;;;;;;;;;;;;;;;;;;;;;;;;;;;;;;;;;;;;;;;;;;;;;;;;;;
2003;[6124] SPANDLER C. J. (2003);samp. 40102;;NEW ZEALAND / SOUTH ISLAND / SOUTHLAND / GREENHILLS COMPLEX;NORTHERN INTRUSION;-46.52;168.23;-46.54;168.25;;;OUTCROP;;;SUBAERIAL;VOLCANIC ROCK;ANKARAMITE;;;;;;;;;;WHOLE ROCK;;;;;;;;;;;;;;49.17;0.45;10.05;;;;;;10.29;;11.52;15.87;0.19;;;;;;0.32;XRF;;;1.2;XRF;;;0.03;;;;;;;;;0.01;1.1;;;;;;;;;;;;;;;;;;;;;;;;;;;;;;;;;;;;;;;50.04;ICPMS_LA;;;;;2702;217;ICPMS_LA;;;880;XRF;;;;;;;;;;;270;XRF;;;;;;;;;;;;;;;;;;;;6;ICPMS_LA;;;113;ICPMS_LA;;;11.83;ICPMS_LA;;;17.99;ICPMS_LA;;;0.53;ICPMS_LA;;;;;;;;;;;1.13;61.2;ICPMS_LA;;;1.2;ICPMS_LA;;;2.83;ICPMS_LA;;;;;;;2.72;ICPMS_LA;;;1;ICPMS_LA;;;0.43;ICPMS_LA;;;1.52;;;;;1.94;;1.35;;1.31;ICPMS_LA;;;0.21;0.65;ICPMS_LA;;;0.06;;;;;;;;;;;;;;;;;10.25;XRF;;;;0.18;ICPMS_LA;;;;0.11;ICPMS_LA;;;;;;;;;;;;;;;;;;;;;;;;;;;;;;;;;;;;;;;;;;;;;;;;;;;;;;;;;;;;;;;;;;;;;;;;;;;;;;;;;;;;;;;;;;;;;;;;;;