Year;CITATION;SAMPLE NAME;UNIQUE_ID;LOCATION;LOCATION COMMENT;LATITUDE (MIN.);LONGITUDE (MIN.);LATITUDE (MAX.);LONGITUDE (MAX.);ELEVATION (MIN.);ELEVATION (MAX.);SAMPLING TECHNIQUE;DRILLING DEPTH (MIN.);DRILLING DEPTH (MAX.);LAND/SEA (SAMPLING);ROCK TYPE;ROCK NAME;ROCK TEXTURE;SAMPLE COMMENT;AGE (MIN.);AGE (MAX.);GEOLOGICAL AGE;GEOLOGICAL AGE PREFIX;ERUPTION YEAR;ALTERATION;ALTERATION TYPE;TYPE OF MATERIAL;MINERAL / COMPONENT;SPOT (MINERAL);CRYSTAL;RIM / CORE (MINERAL GRAINS);GRAIN SIZE;PRIMARY/SECONDARY;INCLUSION TYPE;SPOT (INCLUSION);MINERAL (INCLUSION);RIM / CORE (INCLUSION);HOSTMINERAL (INCLUSION);HEATING;HEATING TEMPERATURE (?C);SIO2(WT%);TIO2(WT%);AL2O3(WT%);CR2O3(WT%);V2O3(WT%);V2O5(WT%);FE2O3T(WT%);FE2O3(WT%);FEOT(WT%);FEO(WT%);CAO(WT%);MGO(WT%);MNO(WT%);BAO(WT%);SRO(WT%);NIO(WT%);ZNO(WT%);COO(WT%);K2O(WT%);;;;NA2O(WT%);;;;P2O5(WT%);H2O(WT%);H2OP(WT%);H2OM(WT%);CO2(WT%);F(WT%);CL(WT%);CL2(WT%);SO3(WT%);S(WT%);LOI(WT%);O(WT%);SI(WT%);AL(WT%);TI(WT%);FE(WT%);MG(WT%);MN(WT%);CA(WT%);K(WT%): altern. values or methods;;;;NA(WT%);CR(WT%);NI(WT%);HE(CCMSTP/G);HE3(CCMSTP/G);HE4(CCMSTP/G): altern. values or methods;;;;LI(PPM);BE(PPM);B(PPM);F(PPM);NE20(CCMSTP/G);NE22(CCMSTP/G);P(PPM);S(PPM);CL(PPM);AR36(CCMSTP/G);AR40(CCMSTP/G);AR40(MOL/G): altern. values or methods;;;;AR40(PPB);K(PPM);SC(PPM): altern. values or methods;;;;;;TI(PPM);V(PPM): altern. values or methods;;;;CR(PPM): altern. values or methods;;;;MN(PPM);FE(PPM);CO(PPM): altern. values or methods;;;;;;NI(PPM): altern. values or methods;;;;;;CU(PPM): altern. values or methods;;;;ZN(PPM): altern. values or methods;;;;GA(PPM): altern. values or methods;;;;GE(PPM);AS(PPM);KR84(CCMSTP/G);RB(PPM): altern. values or methods;;;;SR(PPM): altern. values or methods;;;;Y(PPM): altern. values or methods;;;;ZR(PPM): altern. values or methods;;;;NB(PPM): altern. values or methods;;;;MO(PPM);RU(PPB);RH(PPB);PD(PPB);IN(PPM);SN(PPM);SB(PPM);XE132(CCMSTP/G);CS(PPM);BA(PPM): altern. values or methods;;;;LA(PPM): altern. values or methods;;;;CE(PPM): altern. values or methods;;;;PR(PPM): altern. values or methods;;;;ND(PPM): altern. values or methods;;;;SM(PPM): altern. values or methods;;;;EU(PPM): altern. values or methods;;;;GD(PPM);TB(PPM): altern. values or methods;;;;DY(PPM);HO(PPM);ER(PPM);TM(PPM);YB(PPM): altern. values or methods;;;;LU(PPM);HF(PPM): altern. values or methods;;;;TA(PPM);W(PPM);RE(PPB): altern. values or methods;;;;RE(PPT);OS(PPB): altern. values or methods;;;;OS(PPT);IR(PPB);PT(PPB);AU(PPB);HG(PPB);TL(PPM);PB(PPM): altern. values or methods;;;;PB210_ACT(DPM/G);TH(PPM): altern. values or methods;;;;TH(PPB);U(PPM): altern. values or methods;;;;U(PPB);CO2(PPM);H2O(PPM);ND143_ND144;ND148_ND144;SM147_ND144;SR87_SR86;RB87_SR86;PB206_PB204: altern. values or methods;;;;PB206_PB207;PB206_PB208;PB207_PB204: altern. values or methods;;;;PB207_PB206;PB208_PB204: altern. values or methods;;;;PB208_PB206;OS187_OS186;OS187_OS188: altern. values or methods;;;;RE187_OS188: altern. values or methods;;;;HF176_HF177;HE3_HE4;HE3_HE4(R/R(A)): altern. values or methods;;;;HE4_HE3: altern. values or methods;;;;;;HE4_HE3(R/R(A)): altern. values or methods;;;;AR38_AR36;AR40_AR36;NE20_NE22;NE21_NE22;XE129_XE132;PB206_U238;PB207_U235;PB210_U238;TH232_U238;U238_PB204;D13C(VS SMOW);D17O(VS VSMOW);D18O(PER MIL);D18O(VS PDB);D18O(VS SMOW);D18O(VS VSMOW);D34S(VS CDT);D44_40CA(VS SRM915A);D56FE(VS IRMM-014);DD(VS SMOW);ALBITE(MOL%);ACMITE(MOL%);ANORTHITE(MOL%);ENSTATITE(MOL%);FAYALITE(MOL%);FORSTERITE(MOL%);FERROSILITE(MOL%);HEMATITE(MOL%);LARNITE(MOL%);ORTHOCLASE(MOL%);PSEUDOBROOKITE(MOL%);TEPHROITE(MOL%);ULVOSPINEL(MOL%);WOLLASTONITE(MOL%);AGE(KA);AGE(MA): altern. values or methods;;;;;;;;AGE_PB207_PB206(MA);AGE_PB207_U235(MA);AGE_PB206_U238(MA);
1995;[3730] PASQUA F. N. (1995);samp. 31541;;NEW HEBRIDES ARC - VANUATU ARCHIPELAGO / BANKS ISLANDS / MERELAVA / MERELAVA;;-14.45;168;-14.45;168;;;OUTCROP;;;SUBAERIAL;VOLCANIC ROCK;ANKARAMITE;;LAVA;;;;;;;;INCLUSION;;;;;;;MINERAL INCLUSION;;GLASS;;MELT;FALSE;;65.41;0.26;23.82;;;;;;1.32;;3.63;0.68;;;;;;;1.56;EMP (EPMA);;;5.64;EMP (EPMA);;;0.26;;;;;;;;;;;;;;;;;;;;;;;;;;;;;;;;;;;;;;;;;;;;;;;;;;;;;;;;;;;;;;;;;;;;;;;;;;;;;;;;;;;;;;;;;;;;;;;;;;;;;;;;;;;;;;;;;;;;;;;;;;;;;;;;;;;;;;;;;;;;;;;;;;;;;;;;;;;;;;;;;;;;;;;;;;;;;;;;;;;;;;;;;;;;;;;;;;;;;;;;;;;;;;;;;;;;;;;;;;;;;;;;;;;;;;;;;;;;;;;;;;;;;;;;;;;;;;;;;;;;;;;;;;;;;;;;;;;;;;;;;;;;;;;;;;;;;;
1983;[3732] FODEN J. D. (1983);samp. 48001;55262;SUNDA ARC / SUNDA ARC / LOMBOK / RINDJANI/RINJANI;;-8.42;116.47;-8.42;116.47;;3726;OUTCROP;;;SUBAERIAL;VOLCANIC ROCK;ANKARAMITE;;;;;;;;;;WHOLE ROCK;;;;;;;;;;;;;;48.32;0.69;10.53;;;;;1.53;;7.81;14.38;14.02;0.17;;;;;;0.9;XRF;;;1.5;XRF;;;0.15;;2.33;;;;;;;;;;;;;;;;;;;;;;;;;;;;;;;;;;;;;;;;;;;;;;;50;XRF;;;;;;;;;;510;XRF;;;;;;;;;;;151;XRF;;;;;;;;;;;;;;;;;;;;21;XRF;;;452;XRF;;;13;XRF;;;53;XRF;;;2;XRF;;;;;;;;;;;;;;;;;;;;;;;;;;;;;;;;;;;;;;;;;;;;;;;;;;;;;;;;;;;;;;;;;;;;;;;;;;;;;;;;;;;;;;;;;;;;;;;;;;;;;;;;;;;;;;;;;;;;;;;;;;;;;;;;;;;;;;;;;;;;;;;;;;;;;;;;;;;;;;;;;;;;;;;;;;;;;;;;;;;;;;;;
1983;[3732] FODEN J. D. (1983);samp. 48002;55263;SUNDA ARC / SUNDA ARC / LOMBOK / RINDJANI/RINJANI;;-8.42;116.47;-8.42;116.47;;3726;OUTCROP;;;SUBAERIAL;VOLCANIC ROCK;ANKARAMITE;;;;;;;;;;WHOLE ROCK;;;;;;;;;;;;;;47.95;0.83;13.78;;;;;1.69;;8.64;13.14;10.61;0.17;;;;;;1.2;XRF;;;1.78;XRF;;;0.21;;3.08;;;;;;;;;;;;;;;;;;;;;;;;;;;;;;;;;;;;;;;;;;;;;;;36;XRF;;;;;;;;;;307;XRF;;;;;;;;;;;125;XRF;;;;;;;;;;;;;;;;;;;;31;XRF;;;556;XRF;;;16;XRF;;;49;XRF;;;;;;;;;;;;;;;;;;;;;;;;;;;;;;;;;;;;;;;;;;;;;;;;;;;;;;;;;;;;;;;;;;;;;;;;;;;;;;;;;;;;;;;;;;;;;;;;;;;;;;;;;;;;;;;;;;;;;;;;;;;;;;;;;;;;;;;;;;;;;;;;;;;;;;;;;;;;;;;;;;;;;;;;;;;;;;;;;;;;;;;;;;;;
1983;[3732] FODEN J. D. (1983);samp. 48004;;SUNDA ARC / SUNDA ARC / LOMBOK / RINDJANI/RINJANI;;-8.42;116.47;-8.42;116.47;;3726;OUTCROP;;;SUBAERIAL;VOLCANIC ROCK;ANKARAMITE;;;;;;;;;;WHOLE ROCK;;;;;;;;;;;;;;48.33;0.91;15.34;;;;;1.73;;8.81;12.3;8.39;0.2;;;;;;1.29;XRF;;;2.42;XRF;;;0.28;;2.27;;;;;;;;;;;;;;;;;;;;;;;;;;;;;;;;;;;;;;;;;;;;;;;39;XRF;;;;;;;;;;190;XRF;;;;;;;;;;;57;XRF;;;;;;;;;;;;;;;;;;;;38;XRF;;;611;XRF;;;18;XRF;;;57;XRF;;;4;XRF;;;;;;;;;;;;;;;;;;;;;;;;;;;;;;;;;;;;;;;;;;;;;;;;;;;;;;;;;;;;;;;;;;;;;;;;;;;;;;;;;;;;;;;;;;;;;;;;;;;;;;;;;;;;;;;;;;;;;;;;;;;;;;;;;;;;;;;;;;;;;;;;;;;;;;;;;;;;;;;;;;;;;;;;;;;;;;;;;;;;;;;;
1983;[3732] FODEN J. D. (1983);samp. 48001;55262;SUNDA ARC / SUNDA ARC / LOMBOK / RINDJANI/RINJANI;;-8.42;116.47;-8.42;116.47;;3726;OUTCROP;;;SUBAERIAL;VOLCANIC ROCK;ANKARAMITE;;;;;;;;;;MINERAL / COMPONENT (INCL. GROUNDMASS);PYROXENE;;MICROCRYST;;;PRIMARY;;;;;;;;53.6;0.2;0.9;0.9;;;;;;2.7;23.9;17.9;;;;;;;;;;;;;;;;;;;;;;;;;;;;;;;;;;;;;;;;;;;;;;;;;;;;;;;;;;;;;;;;;;;;;;;;;;;;;;;;;;;;;;;;;;;;;;;;;;;;;;;;;;;;;;;;;;;;;;;;;;;;;;;;;;;;;;;;;;;;;;;;;;;;;;;;;;;;;;;;;;;;;;;;;;;;;;;;;;;;;;;;;;;;;;;;;;;;;;;;;;;;;;;;;;;;;;;;;;;;;;;;;;;;;;;;;;;;;;;;;;;;;;;;;;;;;;;;;;;;;;;;;;;;;;;;;;;;;;;;;;;;;;;;;;;;;;;;;;;;;;;;;;;;;
1983;[3732] FODEN J. D. (1983);samp. 48001;55262;SUNDA ARC / SUNDA ARC / LOMBOK / RINDJANI/RINJANI;;-8.42;116.47;-8.42;116.47;;3726;OUTCROP;;;SUBAERIAL;VOLCANIC ROCK;ANKARAMITE;;;;;;;;;;MINERAL / COMPONENT (INCL. GROUNDMASS);PYROXENE;;PHENOCRYST;;;PRIMARY;;;;;;;;50.6;0.8;3.9;0.2;;;;;;7.7;22.3;14.4;;;;;;;;;;;;;;;;;;;;;;;;;;;;;;;;;;;;;;;;;;;;;;;;;;;;;;;;;;;;;;;;;;;;;;;;;;;;;;;;;;;;;;;;;;;;;;;;;;;;;;;;;;;;;;;;;;;;;;;;;;;;;;;;;;;;;;;;;;;;;;;;;;;;;;;;;;;;;;;;;;;;;;;;;;;;;;;;;;;;;;;;;;;;;;;;;;;;;;;;;;;;;;;;;;;;;;;;;;;;;;;;;;;;;;;;;;;;;;;;;;;;;;;;;;;;;;;;;;;;;;;;;;;;;;;;;;;;;;;;;;;;;;;;;;;;;;;;;;;;;;;;;;;;;
2001;[4294] BERGMANIS E. C. (2001);samp. BEM-58;;HAWAIIAN ISLANDS / MAUI / HALEAKALA / REJUVENATED STAGE / HANA SERIES;;20.6353;-156.3433;20.6353;-156.3433;;;OUTCROP;;;SUBAERIAL;VOLCANIC ROCK;ANKARAMITE;;;;;;;;;;WHOLE ROCK;;;;;;;;;;;;;;42.27;3.34;14.57;;;;15.58;;;;11.14;7.78;0.19;;;;;;1.12;XRF;;;3.78;XRF;;;0.49;;;;;;;;;;-0.64;;;;;;;;;;;;;;;;;;;;;;;;;;;;;;;;;;;;;;;25;XRF;;;;;;386;XRF;;;204;XRF;;;;;;;;;;;76;XRF;;;;;39;XRF;;;120;XRF;;;;;;;;;;27;XRF;;;738;XRF;;;28;XRF;;;204;XRF;;;42;XRF;;;;;;;;;;;;;;;;;;;;;;;;;;;;;;;;;;;;;;;;;;;;;;;;;;;;;;;;;;;;;;;;;;;;;;;;;;;;;;;;;;;;;;;;;;;;;;;;;;;;;;;;;;;;;;;;;;;;;;;;;;;;;;;;;;;;;;;;;;;;;;;;;;;;;;;;;;;;;;;;;;;;;;;;;;;;;;;;;;;;;;;;
2001;[4294] BERGMANIS E. C. (2001);samp. EMH-86;;HAWAIIAN ISLANDS / MAUI / HALEAKALA / REJUVENATED STAGE / HANA SERIES;;20.6936;-156.3211;20.6936;-156.3211;;;OUTCROP;;;SUBAERIAL;VOLCANIC ROCK;ANKARAMITE;;;;;;;;;;WHOLE ROCK;;;;;;;;;;;;;;42.64;3.49;14.5;;;;15.52;;;;11.11;8;0.2;;;;;;1.02;XRF;;;3.29;XRF;;;0.49;;;;;;;;;;-0.46;;;;;;;;;;;;;;;;;;;;;;;;;;;;;;;;;;;;;;;27;XRF;;;;;;411;XRF;;;199;XRF;;;;;;;;;;;80;XRF;;;;;45;XRF;;;115;XRF;;;;;;;;;;27;XRF;;;755;XRF;;;28;XRF;;;206;XRF;;;42;XRF;;;;;;;;;;;;;;;;;;;;;;;;;;;;;;;;;;;;;;;;;;;;;;;;;;;;;;;;;;;;;;;;;;;;;;;;;;;;;;;;;;;;;;;;;;;;;;;;;;;;;;;;;;;;;;;;;;;;;;;;;;;;;;;;;;;;;;;;;;;;;;;;;;;;;;;;;;;;;;;;;;;;;;;;;;;;;;;;;;;;;;;;
2001;[4294] BERGMANIS E. C. (2001);samp. BEM-203;;HAWAIIAN ISLANDS / MAUI / HALEAKALA / REJUVENATED STAGE / HANA SERIES;;20.6706;-156.3907;20.6706;-156.3907;;;OUTCROP;;;SUBAERIAL;VOLCANIC ROCK;ANKARAMITE;;;;;;;;;;WHOLE ROCK;;;;;;;;;;;;;;43.1;3.14;13.86;;;;15.28;;;;12.05;8.71;0.19;;;;;;0.97;XRF;;;2.36;XRF;;;0.36;;;;;;;;;;-0.01;;;;;;;;;;;;;;;;;;;;;;;;;;;;;;;;;;;;;;;28;XRF;;;;;;408;XRF;;;352;XRF;;;;;;;;;;;121;XRF;;;;;89;XRF;;;105;XRF;;;;;;;;;;27;XRF;;;608;XRF;;;25;XRF;;;175;XRF;;;37;XRF;;;;;;;;;;;;425;XRF;;;;;;;;;;;;;;;;;;;;;;;;;;;;;;;;;;;;;;;;;;;;;;;;;;;;;;;;;;;;;;;;;;;;;;;;;;;;;;;;;;;;;;;;;;;;;;;;;;;;;;;;;;;;;;;;;;;;;;;;;;;;;;;;;;;;;;;;;;;;;;;;;;;;;;;;;;;;;;;;;;;;;;;;;;;
2001;[4294] BERGMANIS E. C. (2001);samp. EMH-50;;HAWAIIAN ISLANDS / MAUI / HALEAKALA / REJUVENATED STAGE / HANA SERIES;;20.6597;-156.3569;20.6597;-156.3569;;;OUTCROP;;;SUBAERIAL;VOLCANIC ROCK;ANKARAMITE;;;;;;;;;;WHOLE ROCK;;;;;;;;;;;;;;44.23;2.92;13.85;;;;14.52;;;;11.37;9.16;0.19;;;;;;1.05;XRF;;;2.88;XRF;;;0.41;;;;;;;;;;0.09;;;;;;;;;;;;;;;;;;;;;;;;;;;;;;;;;;;;;;;28;XRF;;;;;;333;XRF;;;434;XRF;;;;;;;;;;;175;XRF;;;;;99;XRF;;;109;XRF;;;;;;;;;;26;XRF;;;597;XRF;;;27;XRF;;;190;XRF;;;41;XRF;;;;;;;;;;;;445;XRF;;;;;;;;;;;;;;;;;;;;;;;;;;;;;;;;;;;;;;;;;;;;;;;;;;;;;;;;;;;;;;;;;;;;;;;;;;;;;;;;;;;;;;;;;;;;;;;;;;;;;;;;;;;;;;;;;;;;;;;;;;;;;;;;;;;;;;;;;;;;;;;;;;;;;;;;;;;;;;;;;;;;;;;;;;;
2001;[4294] BERGMANIS E. C. (2001);samp. EMH-4;;HAWAIIAN ISLANDS / MAUI / HALEAKALA / REJUVENATED STAGE / HANA SERIES;;20.6958;-156.3017;20.6958;-156.3017;;;OUTCROP;;;SUBAERIAL;VOLCANIC ROCK;ANKARAMITE;;;;;;;;;;WHOLE ROCK;;;;;;;;;;;;;;42.76;3.26;13.38;;;;15.5;;;;11.81;9.52;0.19;;;;;;0.9;XRF;;;2.57;XRF;;;0.41;;;;;;;;;;0.27;;;;;;;;;;;;;;;;;;;;;;;;;;;;;;;;;;;;;;;28;XRF;;;;;;386;XRF;;;395;XRF;;;;;;;;;;;160;XRF;;;;;75;XRF;;;104;XRF;;;;;;;;;;22;XRF;;;625;XRF;;;26;XRF;;;184;XRF;;;37;XRF;;;;;;;;;;;;435;XRF;;;;;;;;;;;;;;;;;;;;;;;;;;;;;;;;;;;;;;;;;;;;;;;;;;;;;;;;;;;;;;;;;;;;;;;;;;;;;;;;;;;;;;;;;;;;;;;;;;;;;;;;;;;;;;;;;;;;;;;;;;;;;;;;;;;;;;;;;;;;;;;;;;;;;;;;;;;;;;;;;;;;;;;;;;;
2001;[4294] BERGMANIS E. C. (2001);samp. BEM-44;;HAWAIIAN ISLANDS / MAUI / HALEAKALA / REJUVENATED STAGE / HANA SERIES;;20.6567;-156.3364;20.6567;-156.3364;;;OUTCROP;;;SUBAERIAL;VOLCANIC ROCK;ANKARAMITE;;;;;;;;;;WHOLE ROCK;;;;;;;;;;;;;;43.37;3.17;13.63;;;;15.83;;;;11.38;9.92;0.2;;;;;;1;XRF;;;2.2;XRF;;;0.43;;;;;;;;;;-0.53;;;;;;;;;;;;;;;;;;;;;;;;;;;;;;;;;;;;;;;28;XRF;;;;;;383;XRF;;;379;XRF;;;;;;;;;;;128;XRF;;;;;46;XRF;;;117;XRF;;;;;;;;;;24;XRF;;;617;XRF;;;25;XRF;;;187;XRF;;;38;XRF;;;;;;;;;;;;;;;;;;;;;;;;;;;;;;;;;;;;;;;;;;;;;;;;;;;;;;;;;;;;;;;;;;;;;;;;;;;;;;;;;;;;;;;;;;;;;;;;;;;;;;;;;;;;;;;;;;;;;;;;;;;;;;;;;;;;;;;;;;;;;;;;;;;;;;;;;;;;;;;;;;;;;;;;;;;;;;;;;;;;;;;;
2001;[4294] BERGMANIS E. C. (2001);samp. EMH-42;;HAWAIIAN ISLANDS / MAUI / HALEAKALA / REJUVENATED STAGE / HANA SERIES;;20.6883;-156.3169;20.6883;-156.3169;;;OUTCROP;;;SUBAERIAL;VOLCANIC ROCK;ANKARAMITE;;;;;;;;;;WHOLE ROCK;;;;;;;;;;;;;;43.28;2.86;12.84;;;;15.25;;;;11.71;10.71;0.19;;;;;;0.9;XRF;;;2.64;XRF;;;0.38;;;;;;;;;;0.3;;;;;;;;;;;;;;;;;;;;;;;;;;;;;;;;;;;;;;;28;XRF;;;;;;367;XRF;;;477;XRF;;;;;;;;;;;202;XRF;;;;;65;XRF;;;105;XRF;;;;;;;;;;22;XRF;;;562;XRF;;;25;XRF;;;168;XRF;;;35;XRF;;;;;;;;;;;;380;XRF;;;;;;;;;;;;;;;;;;;;;;;;;;;;;;;;;;;;;;;;;;;;;;;;;;;;;;;;;;;;;;;;;;;;;;;;;;;;;;;;;;;;;;;;;;;;;;;;;;;;;;;;;;;;;;;;;;;;;;;;;;;;;;;;;;;;;;;;;;;;;;;;;;;;;;;;;;;;;;;;;;;;;;;;;;;
2001;[4294] BERGMANIS E. C. (2001);samp. EMH-18;;HAWAIIAN ISLANDS / MAUI / HALEAKALA / REJUVENATED STAGE / HANA SERIES;;20.6203;-156.4406;20.6203;-156.4406;;;OUTCROP;;;SUBAERIAL;VOLCANIC ROCK;ANKARAMITE;;;;;;;;;;WHOLE ROCK;;;;;;;;;;;;;;42.73;2.95;12.41;;;;15.08;;;;11.37;11.42;0.18;;;;;;0.87;XRF;;;2.4;XRF;;;0.34;;;;;;;;;;0.16;;;;;;;;;;;;;;;;;;;;;;;;;;;;;;;;;;;;;;;27;XRF;;;;;;357;XRF;;;549;XRF;;;;;;;;;;;277;XRF;;;;;112;XRF;;;103;XRF;;;;;;;;;;22;XRF;;;532;XRF;;;25;XRF;;;165;XRF;;;34;XRF;;;;;;;;;;;;417;XRF;;;;;;;;;;;;;;;;;;;;;;;;;;;;;;;;;;;;;;;;;;;;;;;;;;;;;;;;;;;;;;;;;;;;;;;;;;;;;;;;;;;;;;;;;;;;;;;;;;;;;;;;;;;;;;;;;;;;;;;;;;;;;;;;;;;;;;;;;;;;;;;;;;;;;;;;;;;;;;;;;;;;;;;;;;;
2001;[4294] BERGMANIS E. C. (2001);samp. EMH-49;;HAWAIIAN ISLANDS / MAUI / HALEAKALA / REJUVENATED STAGE / HANA SERIES;;20.6289;-156.4213;20.6289;-156.4213;;;OUTCROP;;;SUBAERIAL;VOLCANIC ROCK;ANKARAMITE;;;;;;;;;;WHOLE ROCK;;;;;;;;;;;;;;43.15;2.78;12.25;;;;14.95;;;;10.97;11.94;0.19;;;;;;0.85;XRF;;;2.39;XRF;;;0.35;;;;;;;;;;0.18;;;;;;;;;;;;;;;;;;;;;;;;;;;;;;;;;;;;;;;27;XRF;;;;;;335;XRF;;;672;XRF;;;;;;;;;;;333;XRF;;;;;113;XRF;;;105;XRF;;;;;;;;;;22;XRF;;;525;XRF;;;24;XRF;;;164;XRF;;;34;XRF;;;;;;;;;;;;403;XRF;;;;;;;;;;;;;;;;;;;;;;;;;;;;;;;;;;;;;;;;;;;;;;;;;;;;;;;;;;;;;;;;;;;;;;;;;;;;;;;;;;;;;;;;;;;;;;;;;;;;;;;;;;;;;;;;;;;;;;;;;;;;;;;;;;;;;;;;;;;;;;;;;;;;;;;;;;;;;;;;;;;;;;;;;;;
2001;[4294] BERGMANIS E. C. (2001);samp. EMH-101;;HAWAIIAN ISLANDS / MAUI / HALEAKALA / REJUVENATED STAGE / HANA SERIES;;20.6289;-156.2661;20.6289;-156.2661;;;OUTCROP;;;SUBAERIAL;VOLCANIC ROCK;ANKARAMITE;;;;;;;;;;WHOLE ROCK;;;;;;;;;;;;;;42.67;2.75;11.83;;;;15.63;;;;11.32;12.77;0.19;;;;;;0.76;XRF;;;2.19;XRF;;;0.36;;;;;;;;;;0.19;;;;;;;;;;;;;;;;;;;;;;;;;;;;;;;;;;;;;;;31;XRF;;;;;;384;XRF;;;566;XRF;;;;;;;;;;;289;XRF;;;;;49;XRF;;;107;XRF;;;;;;;;;;18;XRF;;;529;XRF;;;23;XRF;;;159;XRF;;;31;XRF;;;;;;;;;;;;;;;;;;;;;;;;;;;;;;;;;;;;;;;;;;;;;;;;;;;;;;;;;;;;;;;;;;;;;;;;;;;;;;;;;;;;;;;;;;;;;;;;;;;;;;;;;;;;;;;;;;;;;;;;;;;;;;;;;;;;;;;;;;;;;;;;;;;;;;;;;;;;;;;;;;;;;;;;;;;;;;;;;;;;;;;;
2001;[4294] BERGMANIS E. C. (2001);samp. BEM-163;;HAWAIIAN ISLANDS / MAUI / HALEAKALA / REJUVENATED STAGE / HANA SERIES;;20.6583;-156.4253;20.6583;-156.4253;;;OUTCROP;;;SUBAERIAL;VOLCANIC ROCK;ANKARAMITE;;;;;;;;;;WHOLE ROCK;;;;;;;;;;;;;;42.64;2.53;11.13;;;;14.53;;;;11.48;13.61;0.18;;;;;;0.72;XRF;;;3.08;XRF;;;0.31;;;;;;;;;;-0.33;;;;;;;;;;;;;;;;;;;;;;;;;;;;;;;;;;;;;;;30;XRF;;;;;;344;XRF;;;758;XRF;;;;;;;;;;;312;XRF;;;;;69;XRF;;;101;XRF;;;;;;;;;;17;XRF;;;496;XRF;;;21;XRF;;;139;XRF;;;28;XRF;;;;;;;;;;;;;;;;;;;;;;;;;;;;;;;;;;;;;;;;;;;;;;;;;;;;;;;;;;;;;;;;;;;;;;;;;;;;;;;;;;;;;;;;;;;;;;;;;;;;;;;;;;;;;;;;;;;;;;;;;;;;;;;;;;;;;;;;;;;;;;;;;;;;;;;;;;;;;;;;;;;;;;;;;;;;;;;;;;;;;;;;
2001;[4294] BERGMANIS E. C. (2001);samp. EMH-26;;HAWAIIAN ISLANDS / MAUI / HALEAKALA / REJUVENATED STAGE / HANA SERIES;HANAMANIOA CO-ERUPTIVE SEQUENCE;20.6392;-156.3955;20.6392;-156.3955;;;OUTCROP;;;SUBAERIAL;VOLCANIC ROCK;ANKARAMITE;;;;;;;;;;WHOLE ROCK;;;;;;;;;;;;;;42.6;3.6;12.84;;;;14.87;;;;12.48;8.15;0.2;;;;;;1.25;XRF;;;3.05;XRF;;;0.51;0.2;;;0.16;;;;;;;;;;;;;;;;;;;;;;;;;;;;;;;;;;;;;;;;;;;;;31;XRF;;;;;;406;XRF;;;305;XRF;;;;;;;;;;;135;XRF;;;;;166;XRF;;;111;XRF;;;;;;;;;;29;XRF;;;762;XRF;;;26;XRF;;;232;XRF;;;49;XRF;;;;;;;;;;;;528;XRF;;;;;;;;;;;;;;;;;;;;;;;;;;;;;;;;;;;;;;;;;;;;;;;;;;;;;;;;;;;;;;;;;;;;;;;;;;;;;;;;;;;;;;;;;;;;;;;;;;;;;;;;;;;;;;;;;;;;;;;;;;;;;;;;;;;;;;;;;;;;;;;;;;;;;;;;;;;;;;;;;;;;;;;;;;;
2001;[4294] BERGMANIS E. C. (2001);samp. EMH-27;;HAWAIIAN ISLANDS / MAUI / HALEAKALA / REJUVENATED STAGE / HANA SERIES;HANAMANIOA CO-ERUPTIVE SEQUENCE;20.6343;-156.3945;20.6343;-156.3945;;;OUTCROP;;;SUBAERIAL;VOLCANIC ROCK;ANKARAMITE;;;;;;;;;;WHOLE ROCK;;;;;;;;;;;;;;42.85;3.61;13;;;;14.91;;;;12.5;8.04;0.19;;;;;;1.28;XRF;;;3.26;XRF;;;0.53;0.11;;;0.12;;;;;;;;;;;;;;;;;;;;;;;;;;;;;;;;;;;;;;;;;;;;;31;XRF;;;;;;406;XRF;;;283;XRF;;;;;;;;;;;129;XRF;;;;;173;XRF;;;110;XRF;;;;;;;;;;29;XRF;;;770;XRF;;;27;XRF;;;234;XRF;;;50;XRF;;;;;;;;;;;;519;XRF;;;;;;;;;;;;;;;;;;;;;;;;;;;;;;;;;;;;;;;;;;;;;;;;;;;;;;;;;;;;;;;;;;;;;;;;;;;;;;;;;;;;;;;;;;;;;;;;;;;;;;;;;;;;;;;;;;;;;;;;;;;;;;;;;;;;;;;;;;;;;;;;;;;;;;;;;;;;;;;;;;;;;;;;;;;
2001;[4294] BERGMANIS E. C. (2001);samp. EMH-29;;HAWAIIAN ISLANDS / MAUI / HALEAKALA / REJUVENATED STAGE / HANA SERIES;HANAMANIOA CO-ERUPTIVE SEQUENCE;20.6354;-156.3822;20.6354;-156.3822;;;OUTCROP;;;SUBAERIAL;VOLCANIC ROCK;ANKARAMITE;;;;;;;;;;WHOLE ROCK;;;;;;;;;;;;;;43.06;3.67;13.08;;;;15.06;;;;12.41;8.34;0.19;;;;;;1.28;XRF;;;3.06;XRF;;;0.52;0.19;;;0.14;;;;;;;;;;;;;;;;;;;;;;;;;;;;;;;;;;;;;;;;;;;;;27;XRF;;;;;;380;XRF;;;196;XRF;;;;;;;;;;;119;XRF;;;;;129;XRF;;;109;XRF;;;;;;;;;;30;XRF;;;758;XRF;;;27;XRF;;;237;XRF;;;50;XRF;;;;;;;;;;;;521;XRF;;;;;;;;;;;;;;;;;;;;;;;;;;;;;;;;;;;;;;;;;;;;;;;;;;;;;;;;;;;;;;;;;;;;;;;;;;;;;;;;;;;;;;;;;;;;;;;;;;;;;;;;;;;;;;;;;;;;;;;;;;;;;;;;;;;;;;;;;;;;;;;;;;;;;;;;;;;;;;;;;;;;;;;;;;;
2001;[4294] BERGMANIS E. C. (2001);samp. EMH-30;;HAWAIIAN ISLANDS / MAUI / HALEAKALA / REJUVENATED STAGE / HANA SERIES;HANAMANIOA CO-ERUPTIVE SEQUENCE;20.6344;-156.3793;20.6344;-156.3793;;;OUTCROP;;;SUBAERIAL;VOLCANIC ROCK;ANKARAMITE;;;;;;;;;;WHOLE ROCK;;;;;;;;;;;;;;42.93;3.65;13.03;;;;14.93;;;;12.59;8.28;0.19;;;;;;1.3;XRF;;;3.31;XRF;;;0.52;0.14;;;0.03;;;;;;;;;;;;;;;;;;;;;;;;;;;;;;;;;;;;;;;;;;;;;28;XRF;;;;;;389;XRF;;;277;XRF;;;;;;;;;;;133;XRF;;;;;122;XRF;;;110;XRF;;;;;;;;;;29;XRF;;;761;XRF;;;26;XRF;;;233;XRF;;;50;XRF;;;;;;;;;;;;505;XRF;;;;;;;;;;;;;;;;;;;;;;;;;;;;;;;;;;;;;;;;;;;;;;;;;;;;;;;;;;;;;;;;;;;;;;;;;;;;;;;;;;;;;;;;;;;;;;;;;;;;;;;;;;;;;;;;;;;;;;;;;;;;;;;;;;;;;;;;;;;;;;;;;;;;;;;;;;;;;;;;;;;;;;;;;;;
1981;[4358] NIELSEN T. F. D. (1981);samp. GM20351;54437;NORTH ATLANTIC IGNEOUS PROVINCE (NAIP) / EAST GREENLAND / VANDFALDSDALEN FORMATION;VANDFALDSDALEN, MIKI FJORD AREA, KANGERLUSSUAQ AREA;70;-26;71;-32;;;OUTCROP;;;SUBAERIAL;VOLCANIC ROCK;ANKARAMITE;;FLOW;;;PALEOCENE;;;;;WHOLE ROCK;;;;;;;;;;;;;;48.08;2.68;7.94;;;;;4.18;;8.9;10.77;11.01;0.16;;;;;;0.38;NOT;;;1.48;NOT;;;0.27;;;;;;;;;;3.2;;;;;;;;;;;;;;;;;;;;;;;;;;;;;;;;;;;;;;;;;;;;;;;;;;;;;;;;;;;;;;;;;;;;;;;;;;;;;;;;;;;;;;;;;;;;;;;;;;;;;;;;;;;;;;;;;;;;;;;;;;;;;;;;;;;;;;;;;;;;;;;;;;;;;;;;;;;;;;;;;;;;;;;;;;;;;;;;;;;;;;;;;;;;;;;;;;;;;;;;;;;;;;;;;;;;;;;;;;;;;;;;;;;;;;;;;;;;;;;;;;;;;;;;;;;;;;;;;;;;;;;;;;;;;;;;;;;;;;;;;;;;
1981;[4358] NIELSEN T. F. D. (1981);samp. GM40032;;NORTH ATLANTIC IGNEOUS PROVINCE (NAIP) / EAST GREENLAND / VANDFALDSDALEN FORMATION;VANDFALDSDALEN, MIKI FJORD AREA, KANGERLUSSUAQ AREA;70;-26;71;-32;;;OUTCROP;;;SUBAERIAL;VOLCANIC ROCK;ANKARAMITE;;FLOW;;;PALEOCENE;;;;;MINERAL / COMPONENT (INCL. GROUNDMASS);CLINOPYROXENE;;PHENOCRYST;CORE;;PRIMARY;;;;;;;;53.54;0.65;1.3;1.01;0;;;0;;5.2;21.54;16.9;0;;;0;;;;;;;;;;;;;;;;;;;;;;;;;;;;;;;;;;;;;;;;;;;;;;;;;;;;;;;;;;;;;;;;;;;;;;;;;;;;;;;;;;;;;;;;;;;;;;;;;;;;;;;;;;;;;;;;;;;;;;;;;;;;;;;;;;;;;;;;;;;;;;;;;;;;;;;;;;;;;;;;;;;;;;;;;;;;;;;;;;;;;;;;;;;;;;;;;;;;;;;;;;;;;;;;;;;;;;;;;;;;;;;;;;;;;;;;;;;;;;;;;;;;;;;;;;;;;;;;;;;;;;;;;;;;;;;;;;;;;;;;;;;;;;;;;;;;;;;;;;;;;;;;;
1981;[4358] NIELSEN T. F. D. (1981);samp. GM40032;;NORTH ATLANTIC IGNEOUS PROVINCE (NAIP) / EAST GREENLAND / VANDFALDSDALEN FORMATION;VANDFALDSDALEN, MIKI FJORD AREA, KANGERLUSSUAQ AREA;70;-26;71;-32;;;OUTCROP;;;SUBAERIAL;VOLCANIC ROCK;ANKARAMITE;;FLOW;;;PALEOCENE;;;;;MINERAL / COMPONENT (INCL. GROUNDMASS);CLINOPYROXENE;;PHENOCRYST;RIM;;PRIMARY;;;;;;;;50.57;1.7;3.29;0.27;0;;;0;;8.98;20.36;14.91;0;;;0;;;;;;;;;;;;;;;;;;;;;;;;;;;;;;;;;;;;;;;;;;;;;;;;;;;;;;;;;;;;;;;;;;;;;;;;;;;;;;;;;;;;;;;;;;;;;;;;;;;;;;;;;;;;;;;;;;;;;;;;;;;;;;;;;;;;;;;;;;;;;;;;;;;;;;;;;;;;;;;;;;;;;;;;;;;;;;;;;;;;;;;;;;;;;;;;;;;;;;;;;;;;;;;;;;;;;;;;;;;;;;;;;;;;;;;;;;;;;;;;;;;;;;;;;;;;;;;;;;;;;;;;;;;;;;;;;;;;;;;;;;;;;;;;;;;;;;;;;;;;;;;;;