Year;CITATION;SAMPLE NAME;UNIQUE_ID;LOCATION;LOCATION COMMENT;LATITUDE (MIN.);LONGITUDE (MIN.);LATITUDE (MAX.);LONGITUDE (MAX.);ELEVATION (MIN.);ELEVATION (MAX.);SAMPLING TECHNIQUE;DRILLING DEPTH (MIN.);DRILLING DEPTH (MAX.);LAND/SEA (SAMPLING);ROCK TYPE;ROCK NAME;ROCK TEXTURE;SAMPLE COMMENT;AGE (MIN.);AGE (MAX.);GEOLOGICAL AGE;GEOLOGICAL AGE PREFIX;ERUPTION YEAR;ALTERATION;ALTERATION TYPE;TYPE OF MATERIAL;MINERAL / COMPONENT;SPOT (MINERAL);CRYSTAL;RIM / CORE (MINERAL GRAINS);GRAIN SIZE;PRIMARY/SECONDARY;INCLUSION TYPE;SPOT (INCLUSION);MINERAL (INCLUSION);RIM / CORE (INCLUSION);HOSTMINERAL (INCLUSION);HEATING;HEATING TEMPERATURE (?C);SIO2(WT%);TIO2(WT%);AL2O3(WT%);CR2O3(WT%);V2O3(WT%);V2O5(WT%);FE2O3T(WT%);FE2O3(WT%);FEOT(WT%);FEO(WT%);CAO(WT%);MGO(WT%);MNO(WT%);BAO(WT%);SRO(WT%);NIO(WT%);ZNO(WT%);COO(WT%);K2O(WT%);;;;NA2O(WT%);;;;P2O5(WT%);H2O(WT%);H2OP(WT%);H2OM(WT%);CO2(WT%);F(WT%);CL(WT%);CL2(WT%);SO3(WT%);S(WT%);LOI(WT%);O(WT%);SI(WT%);AL(WT%);TI(WT%);FE(WT%);MG(WT%);MN(WT%);CA(WT%);K(WT%): altern. values or methods;;;;NA(WT%);CR(WT%);NI(WT%);HE(CCMSTP/G);HE3(CCMSTP/G);HE4(CCMSTP/G): altern. values or methods;;;;LI(PPM);BE(PPM);B(PPM);F(PPM);NE20(CCMSTP/G);NE22(CCMSTP/G);P(PPM);S(PPM);CL(PPM);AR36(CCMSTP/G);AR40(CCMSTP/G);AR40(MOL/G): altern. values or methods;;;;AR40(PPB);K(PPM);SC(PPM): altern. values or methods;;;;;;TI(PPM);V(PPM): altern. values or methods;;;;CR(PPM): altern. values or methods;;;;MN(PPM);FE(PPM);CO(PPM): altern. values or methods;;;;;;NI(PPM): altern. values or methods;;;;;;CU(PPM): altern. values or methods;;;;ZN(PPM): altern. values or methods;;;;GA(PPM): altern. values or methods;;;;GE(PPM);AS(PPM);KR84(CCMSTP/G);RB(PPM): altern. values or methods;;;;SR(PPM): altern. values or methods;;;;Y(PPM): altern. values or methods;;;;ZR(PPM): altern. values or methods;;;;NB(PPM): altern. values or methods;;;;MO(PPM);RU(PPB);RH(PPB);PD(PPB);IN(PPM);SN(PPM);SB(PPM);XE132(CCMSTP/G);CS(PPM);BA(PPM): altern. values or methods;;;;LA(PPM): altern. values or methods;;;;CE(PPM): altern. values or methods;;;;PR(PPM): altern. values or methods;;;;ND(PPM): altern. values or methods;;;;SM(PPM): altern. values or methods;;;;EU(PPM): altern. values or methods;;;;GD(PPM);TB(PPM): altern. values or methods;;;;DY(PPM);HO(PPM);ER(PPM);TM(PPM);YB(PPM): altern. values or methods;;;;LU(PPM);HF(PPM): altern. values or methods;;;;TA(PPM);W(PPM);RE(PPB): altern. values or methods;;;;RE(PPT);OS(PPB): altern. values or methods;;;;OS(PPT);IR(PPB);PT(PPB);AU(PPB);HG(PPB);TL(PPM);PB(PPM): altern. values or methods;;;;PB210_ACT(DPM/G);TH(PPM): altern. values or methods;;;;TH(PPB);U(PPM): altern. values or methods;;;;U(PPB);CO2(PPM);H2O(PPM);ND143_ND144;ND148_ND144;SM147_ND144;SR87_SR86;RB87_SR86;PB206_PB204: altern. values or methods;;;;PB206_PB207;PB206_PB208;PB207_PB204: altern. values or methods;;;;PB207_PB206;PB208_PB204: altern. values or methods;;;;PB208_PB206;OS187_OS186;OS187_OS188: altern. values or methods;;;;RE187_OS188: altern. values or methods;;;;HF176_HF177;HE3_HE4;HE3_HE4(R/R(A)): altern. values or methods;;;;HE4_HE3: altern. values or methods;;;;;;HE4_HE3(R/R(A)): altern. values or methods;;;;AR38_AR36;AR40_AR36;NE20_NE22;NE21_NE22;XE129_XE132;PB206_U238;PB207_U235;PB210_U238;TH232_U238;U238_PB204;D13C(VS SMOW);D17O(VS VSMOW);D18O(PER MIL);D18O(VS PDB);D18O(VS SMOW);D18O(VS VSMOW);D34S(VS CDT);D44_40CA(VS SRM915A);D56FE(VS IRMM-014);DD(VS SMOW);ALBITE(MOL%);ACMITE(MOL%);ANORTHITE(MOL%);ENSTATITE(MOL%);FAYALITE(MOL%);FORSTERITE(MOL%);FERROSILITE(MOL%);HEMATITE(MOL%);LARNITE(MOL%);ORTHOCLASE(MOL%);PSEUDOBROOKITE(MOL%);TEPHROITE(MOL%);ULVOSPINEL(MOL%);WOLLASTONITE(MOL%);AGE(KA);AGE(MA): altern. values or methods;;;;;;;;AGE_PB207_PB206(MA);AGE_PB207_U235(MA);AGE_PB206_U238(MA);
1973;[1294] IBARROLA MUNOZ E. (1973);samp. 27.007;10533;CANARY ISLANDS / GRAN CANARIA / ROQUE NUBLO FORMATION;BARRANCO DE SIMON;28;-15.6;28;-15.6;;;OUTCROP;;;SUBAERIAL;VOLCANIC ROCK;ANKARAMITE;;;;;;;;;;WHOLE ROCK;;;;;;;;;;;;;;38;3.82;9.73;;;;;6;;9.2;13.27;12.84;0.19;;;;;;0.6;NOT;;;2.9;NOT;;;1.56;;2.09;;;;;;;;;;;;;;;;;;;;;;;;;;;;;;;;;;;;;;;;;;;;;;;;;;;;;;;;;;370;NOT;;;;;50;NOT;;;;;262;NOT;;;;;48;NOT;;;;;;;;;;;;;;17;NOT;;;910;NOT;;;33;NOT;;;217;NOT;;;;;;;;;;;;;;;;672;NOT;;;90;NOT;;;135;NOT;;;;;;;;;;;;;;;;;;;;;;;;;;;;;;;;;;;;;;;;;;;;;;;;;;;;;;10;NOT;;;;12;NOT;;;;;;;;;;;;;;;;;;;;;;;;;;;;;;;;;;;;;;;;;;;;;;;;;;;;;;;;;;;;;;;;;;;;;;;;;;;;;;;;;;;;;;;;;;;;;;;;;;;;;;;
1973;[1307] FLOWER M. F. J. (1973);samp. AJ-35;10085;COMOROS / ANJOUAN (NZWANI) / SHIELD STAGE;M^RO CHOUNGOUI STREAM BED, NORTH OF POMONI;-12.15;44.3;-12.15;44.3;;;OUTCROP;;;SUBAERIAL;VOLCANIC ROCK;ANKARAMITE;COARSELY PHYRIC;;;;;;;;;WHOLE ROCK;;;;;;;;;;;;;;;;;;;;;;9.45;;;11.97;;;;;;;;;;;;;;;;;;;;;;;;;;;;;;;;;;;;;;;;;;;;;;;;;;;;;;;;;;;;;;;;;;;;;;;;;;;630;XRF;;;;;;;;;;;350;XRF;;;;;;;;;81;XRF;;;;;;;;;;14;XRF;;;384;XRF;;;31;XRF;;;143;XRF;;;;;;;;;;;;;;;;290;XRF;;;;;;;;;;;;;;;;;;;;;;;;;;;;;;;;;;;;;;;;;;;;;;;;;;;;;;;;;;;;;;;;;;;;;;;;;;;;;;;;;;;;;;;;;;;;;;;;;;;;;;;;;;;;;;;;;;;;;;;;;;;;;;;;;;;;;;;;;;;;;;;;;;;;;;;;;;;;;;;;;;;;;;;;;;;
1973;[1307] FLOWER M. F. J. (1973);samp. AJ-168;10429;COMOROS / ANJOUAN (NZWANI) / DIFFERENTIATED STAGE;;-12.17;44.41;-12.17;44.41;;;OUTCROP;;;SUBAERIAL;VOLCANIC ROCK;ANKARAMITE;;;;;;;;;;WHOLE ROCK;;;;;;;;;;;;;;;;;;;;;;8.55;;;9.94;;;;;;;;;;;;;;;;;;;;;;;;;;;;;;;;;;;;;;;;;;;;;;;;;;;;;;;;;;;;;;;;;;;;;;;;;;;392;XRF;;;;;;;;;;;291;XRF;;;;;;;;;99;XRF;;;;;;;;;;11;XRF;;;330;XRF;;;30;XRF;;;139;XRF;;;;;;;;;;;;;;;;235;XRF;;;;;;;;;;;;;;;;;;;;;;;;;;;;;;;;;;;;;;;;;;;;;;;;;;;;;;;;;;;;;;;;;;;;;;;;;;;;;;;;;;;;;;;;;;;;;;;;;;;;;;;;;;;;;;;;;;;;;;;;;;;;;;;;;;;;;;;;;;;;;;;;;;;;;;;;;;;;;;;;;;;;;;;;;;;
1973;[1307] FLOWER M. F. J. (1973);samp. AJ-110;10086;COMOROS / ANJOUAN (NZWANI) / SHIELD STAGE;M^RO GEGE STREAM BED, 2 KM WEST OF GEGE;-12.15;44.3;-12.15;44.3;;;OUTCROP;;;SUBAERIAL;VOLCANIC ROCK;ANKARAMITE;;;;;;;;;;WHOLE ROCK;;;;;;;;;;;;;;;;;;;;;;9.04;;;10.28;;;;;;;;;;;;;;;;;;;;;;;;;;;;;;;;;;;;;;;;;;;;;;;;;;;;;;;;;;;;;;;;;;;;;;;;;;;244;XRF;;;;;;;;;;;238;XRF;;;;;;;;;108;XRF;;;;;;;;;;22;XRF;;;541;XRF;;;34;XRF;;;162;XRF;;;;;;;;;;;;;;;;360;XRF;;;;;;;;;;;;;;;;;;;;;;;;;;;;;;;;;;;;;;;;;;;;;;;;;;;;;;;;;;;;;;;;;;;;;;;;;;;;;;;;;;;;;;;;;;;;;;;;;;;;;;;;;;;;;;;;;;;;;;;;;;;;;;;;;;;;;;;;;;;;;;;;;;;;;;;;;;;;;;;;;;;;;;;;;;;
1973;[1307] FLOWER M. F. J. (1973);samp. AJ-343;;COMOROS / ANJOUAN (NZWANI) / DIFFERENTIATED STAGE;;-12.17;44.41;-12.17;44.41;;;OUTCROP;;;SUBAERIAL;VOLCANIC ROCK;ANKARAMITE;;;;;;;;;;WHOLE ROCK;;;;;;;;;;;;;;;;;;;;;;7.37;;;8.84;;;;;;;;;;;;;;;;;;;;;;;;;;;;;;;;;;;;;;;;;;;;;;;;;;;;;;;;;;;;;;;;;;;;;;;;;;;195;XRF;;;;;;;;;;;190;XRF;;;;;;;;;91;XRF;;;;;;;;;;25;XRF;;;577;XRF;;;37;XRF;;;193;XRF;;;;;;;;;;;;;;;;475;XRF;;;;;;;;;;;;;;;;;;;;;;;;;;;;;;;;;;;;;;;;;;;;;;;;;;;;;;;;;;;;;;;;;;;;;;;;;;;;;;;;;;;;;;;;;;;;;;;;;;;;;;;;;;;;;;;;;;;;;;;;;;;;;;;;;;;;;;;;;;;;;;;;;;;;;;;;;;;;;;;;;;;;;;;;;;;
1973;[1307] FLOWER M. F. J. (1973);samp. AJ-148;;COMOROS / ANJOUAN (NZWANI) / DIFFERENTIATED STAGE;;-12.17;44.41;-12.17;44.41;;;OUTCROP;;;SUBAERIAL;VOLCANIC ROCK;ANKARAMITE;;;;;;;;;;WHOLE ROCK;;;;;;;;;;;;;;;;;;;;;;8.45;;;8.86;;;;;;;;;;;;;;;;;;;;;;;;;;;;;;;;;;;;;;;;;;;;;;;;;;;;;;;;;;;;;;;;;;;;;;;;;;;160;XRF;;;;;;;;;;;184;XRF;;;;;;;;;102;XRF;;;;;;;;;;25;XRF;;;200;XRF;;;35;XRF;;;186;XRF;;;;;;;;;;;;;;;;395;XRF;;;;;;;;;;;;;;;;;;;;;;;;;;;;;;;;;;;;;;;;;;;;;;;;;;;;;;;;;;;;;;;;;;;;;;;;;;;;;;;;;;;;;;;;;;;;;;;;;;;;;;;;;;;;;;;;;;;;;;;;;;;;;;;;;;;;;;;;;;;;;;;;;;;;;;;;;;;;;;;;;;;;;;;;;;;
1973;[1307] FLOWER M. F. J. (1973);samp. AJ-154;;COMOROS / ANJOUAN (NZWANI) / DIFFERENTIATED STAGE;;-12.17;44.41;-12.17;44.41;;;OUTCROP;;;SUBAERIAL;VOLCANIC ROCK;ANKARAMITE;;;;;;;;;;WHOLE ROCK;;;;;;;;;;;;;;;;;;;;;;7.51;;;13.95;;;;;;;;;;;;;;;;;;;;;;;;;;;;;;;;;;;;;;;;;;;;;;;;;;;;;;;;;;;;;;;;;;;;;;;;;;;730;XRF;;;;;;;;;;;540;XRF;;;;;61;XRF;;;94;XRF;;;;;;;;;;28;XRF;;;398;XRF;;;29;XRF;;;148;XRF;;;;;;;;;;;;;;;;390;XRF;;;;;;;;;;;;;;;;;;;;;;;;;;;;;;;;;;;;;;;;;;;;;;;;;;;;;;;;;;;;;;;;;;;;;;;;;;;;;;;;;;;;;;;;;;;;;;;;;;;;;;;;;;;;;;;;;;;;;;;;;;;;;;;;;;;;;;;;;;;;;;;;;;;;;;;;;;;;;;;;;;;;;;;;;;;
1973;[1307] FLOWER M. F. J. (1973);samp. AJ-221;;COMOROS / ANJOUAN (NZWANI) / DIFFERENTIATED STAGE;;-12.17;44.41;-12.17;44.41;;;OUTCROP;;;SUBAERIAL;VOLCANIC ROCK;ANKARAMITE;;;;;;;;;;WHOLE ROCK;;;;;;;;;;;;;;;;;;;;;;8.2;;;12.81;;;;;;;;;;;;;;;;;;;;;;;;;;;;;;;;;;;;;;;;;;;;;;;;;;;;;;;;;;;;;;;;;;;;;;;;;;;451;XRF;;;;;;;;;;;;;;;;;;;;;90;XRF;;;;;;;;;;28;XRF;;;410;XRF;;;30;XRF;;;135;XRF;;;;;;;;;;;;;;;;300;XRF;;;;;;;;;;;;;;;;;;;;;;;;;;;;;;;;;;;;;;;;;;;;;;;;;;;;;;;;;;;;;;;;;;;;;;;;;;;;;;;;;;;;;;;;;;;;;;;;;;;;;;;;;;;;;;;;;;;;;;;;;;;;;;;;;;;;;;;;;;;;;;;;;;;;;;;;;;;;;;;;;;;;;;;;;;;
1973;[1307] FLOWER M. F. J. (1973);samp. AJ-88;;COMOROS / ANJOUAN (NZWANI) / DIFFERENTIATED STAGE;;-12.17;44.41;-12.17;44.41;;;OUTCROP;;;SUBAERIAL;VOLCANIC ROCK;ANKARAMITE;;;;;;;;;;WHOLE ROCK;;;;;;;;;;;;;;;;;;;;;;9.62;;;11.88;;;;;;;;;;;;;;;;;;;;;;;;;;;;;;;;;;;;;;;;;;;;;;;;;;;;;;;;;;;;;;;;;;;;;;;;;;;542;XRF;;;;;;;;;;;430;XRF;;;;;52;XRF;;;96;XRF;;;;;;;;;;24;XRF;;;429;XRF;;;31;XRF;;;140;XRF;;;;;;;;;;;;;;;;350;XRF;;;;;;;;;;;;;;;;;;;;;;;;;;;;;;;;;;;;;;;;;;;;;;;;;;;;;;;;;;;;;;;;;;;;;;;;;;;;;;;;;;;;;;;;;;;;;;;;;;;;;;;;;;;;;;;;;;;;;;;;;;;;;;;;;;;;;;;;;;;;;;;;;;;;;;;;;;;;;;;;;;;;;;;;;;;
1973;[1307] FLOWER M. F. J. (1973);samp. AJ-172;;COMOROS / ANJOUAN (NZWANI) / DIFFERENTIATED STAGE;;-12.17;44.41;-12.17;44.41;;;OUTCROP;;;SUBAERIAL;VOLCANIC ROCK;ANKARAMITE;;;;;;;;;;WHOLE ROCK;;;;;;;;;;;;;;;;;;;;;;7.58;;;8.5;;;;;;;;;;;;;;;;;;;;;;;;;;;;;;;;;;;;;;;;;;;;;;;;;;;;;;;;;;;;;;;;;;;;;;;;;;;213;XRF;;;;;;;;;;;217;XRF;;;;;85;XRF;;;92;XRF;;;;;;;;;;30;XRF;;;515;XRF;;;31;XRF;;;194;XRF;;;;;;;;;;;;;;;;510;XRF;;;;;;;;;;;;;;;;;;;;;;;;;;;;;;;;;;;;;;;;;;;;;;;;;;;;;;;;;;;;;;;;;;;;;;;;;;;;;;;;;;;;;;;;;;;;;;;;;;;;;;;;;;;;;;;;;;;;;;;;;;;;;;;;;;;;;;;;;;;;;;;;;;;;;;;;;;;;;;;;;;;;;;;;;;;
1973;[1307] FLOWER M. F. J. (1973);samp. AJ-175;10440;COMOROS / ANJOUAN (NZWANI) / DIFFERENTIATED STAGE;;-12.17;44.41;-12.17;44.41;;;OUTCROP;;;SUBAERIAL;VOLCANIC ROCK;ANKARAMITE;;;;;;;;;;WHOLE ROCK;;;;;;;;;;;;;;;;;;;;;;7.03;;;4.58;;;;;;;;;;;;;;;;;;;;;;;;;;;;;;;;;;;;;;;;;;;;;;;;;;;;;;;;;;;;;;;;;;;;;;;;;;;30;XRF;;;;;;;;;;;39;XRF;;;;;;;;;111;XRF;;;;;;;;;;46;XRF;;;779;XRF;;;34;XRF;;;330;XRF;;;;;;;;;;;;;;;;700;XRF;;;;;;;;;;;;;;;;;;;;;;;;;;;;;;;;;;;;;;;;;;;;;;;;;;;;;;;;;;;;;;;;;;;;;;;;;;;;;;;;;;;;;;;;;;;;;;;;;;;;;;;;;;;;;;;;;;;;;;;;;;;;;;;;;;;;;;;;;;;;;;;;;;;;;;;;;;;;;;;;;;;;;;;;;;;
1973;[1307] FLOWER M. F. J. (1973);samp. AJ-86;;COMOROS / ANJOUAN (NZWANI) / DIFFERENTIATED STAGE;;-12.17;44.41;-12.17;44.41;;;OUTCROP;;;SUBAERIAL;VOLCANIC ROCK;ANKARAMITE;;;;;;;;;;WHOLE ROCK;;;;;;;;;;;;;;;;;;;;;;8.2;;;8.55;;;;;;;;;;;;;;;;;;;;;;;;;;;;;;;;;;;;;;;;;;;;;;;;;;;;;;;;;;;;;;;;;;;;;;;;;;;151;XRF;;;;;;;;;;;139;XRF;;;;;99;XRF;;;110;XRF;;;;;;;;;;34;XRF;;;555;XRF;;;31;XRF;;;212;XRF;;;;;;;;;;;;;;;;580;XRF;;;;;;;;;;;;;;;;;;;;;;;;;;;;;;;;;;;;;;;;;;;;;;;;;;;;;;;;;;;;;;;;;;;;;;;;;;;;;;;;;;;;;;;;;;;;;;;;;;;;;;;;;;;;;;;;;;;;;;;;;;;;;;;;;;;;;;;;;;;;;;;;;;;;;;;;;;;;;;;;;;;;;;;;;;;
1973;[1307] FLOWER M. F. J. (1973);samp. OL-154;;COMOROS / ANJOUAN (NZWANI) / DIFFERENTIATED STAGE;;-12.17;44.41;-12.17;44.41;;;OUTCROP;;;SUBAERIAL;VOLCANIC ROCK;ANKARAMITE;;;;;;;;;;MINERAL / COMPONENT (INCL. GROUNDMASS);OLIVINE;;;;;PRIMARY;;;;;;;;;;;;;;;;;;;;;;;;;;;;;;;;;;;;;;;;;;;;;;;;;7.6;;;;;;;;;;;;;;;;;;;;;;;;;;;;;;;;;;;;;;;;486;17;XRF;;;900;XRF;;;2110;;124;XRF;;;;;2013;XRF;;;;;37;XRF;;;82;XRF;;;;;;;;;;;;;;;;;;;;;;;;;;;;;;;;;;;;;;;;;;;;;;;;;;;;;;;;;;;;;;;;;;;;;;;;;;;;;;;;;;;;;;;;;;;;;;;;;;;;;;;;;;;;;;;;;;;;;;;;;;;;;;;;;;;;;;;;;;;;;;;;;;;;;;;;;;;;;;;;;;;;;;;;;;;;;;;;;;;;;;;;;;;;;;;;;;;;;;;;;;;;;;;;;;;
1973;[1307] FLOWER M. F. J. (1973);samp. OL-27;;COMOROS / ANJOUAN (NZWANI) / SHIELD STAGE;STREAM SECTION AT VASSI, SOUTH OF SIMA PENINSULA;-12.15;44.3;-12.15;44.3;;;OUTCROP;;;SUBAERIAL;VOLCANIC ROCK;ANKARAMITE;;;;;;;;;;MINERAL / COMPONENT (INCL. GROUNDMASS);OLIVINE;;;;;PRIMARY;;;;;;;;;;;;;;;;;;;;;;;;;;;;;;;;;;;;;;;;;;;;;;;;;8;;;;;;;;;;;;;;;;;;;;;;;;;;;;;;;;;;;;;;;;698;20;XRF;;;1187;XRF;;;1760;;135;XRF;;;;;1971;XRF;;;;;42;XRF;;;94;XRF;;;;;;;;;;;;;;;;;;;;;;;;;;;;;;;;;;;;;;;;;;;;;;;;;;;;;;;;;;;;;;;;;;;;;;;;;;;;;;;;;;;;;;;;;;;;;;;;;;;;;;;;;;;;;;;;;;;;;;;;;;;;;;;;;;;;;;;;;;;;;;;;;;;;;;;;;;;;;;;;;;;;;;;;;;;;;;;;;;;;;;;;;;;;;;;;;;;;;;;;;;;;;;;;;;;
1973;[1307] FLOWER M. F. J. (1973);samp. OL-35;;COMOROS / ANJOUAN (NZWANI) / SHIELD STAGE;M^RO CHOUNGOUI STREAM BED, NORTH OF POMONI;-12.15;44.3;-12.15;44.3;;;OUTCROP;;;SUBAERIAL;VOLCANIC ROCK;ANKARAMITE;;;;;;;;;;MINERAL / COMPONENT (INCL. GROUNDMASS);OLIVINE;;;;;PRIMARY;;;;;;;;;;;;;;;;;;;;;;;;;;;;;;;;;;;;;;;;;;;;;;;;;8.6;;;;;;;;;;;;;;;;;;;;;;;;;;;;;;;;;;;;;;;;518;16;XRF;;;700;XRF;;;1970;;132;XRF;;;;;1453;XRF;;;;;53;XRF;;;115;XRF;;;;;;;;;;;;;;;;;;;;;;;;;;;;;;;;;;;;;;;;;;;;;;;;;;;;;;;;;;;;;;;;;;;;;;;;;;;;;;;;;;;;;;;;;;;;;;;;;;;;;;;;;;;;;;;;;;;;;;;;;;;;;;;;;;;;;;;;;;;;;;;;;;;;;;;;;;;;;;;;;;;;;;;;;;;;;;;;;;;;;;;;;;;;;;;;;;;;;;;;;;;;;;;;;;;
1973;[1307] FLOWER M. F. J. (1973);samp. OL-88;;COMOROS / ANJOUAN (NZWANI) / DIFFERENTIATED STAGE;;-12.17;44.41;-12.17;44.41;;;OUTCROP;;;SUBAERIAL;VOLCANIC ROCK;ANKARAMITE;;;;;;;;;;MINERAL / COMPONENT (INCL. GROUNDMASS);OLIVINE;;;;;PRIMARY;;;;;;;;;;;;;;;;;;;;;;;;;;;;;;;;;;;;;;;;;;;;;;;;;12.4;;;;;;;;;;;;;;;;;;;;;;;;;;;;;;;;;;;;;;;;;21;XRF;;;711;XRF;;;2432;;120;XRF;;;;;1491;XRF;;;;;61;XRF;;;90;XRF;;;;;;;;;;;;;;;;;;;;;;;;;;;;;;;;;;;;;;;;;;;;;;;;;;;;;;;;;;;;;;;;;;;;;;;;;;;;;;;;;;;;;;;;;;;;;;;;;;;;;;;;;;;;;;;;;;;;;;;;;;;;;;;;;;;;;;;;;;;;;;;;;;;;;;;;;;;;;;;;;;;;;;;;;;;;;;;;;;;;;;;;;;;;;;;;;;;;;;;;;;;;;;;;;;;
1973;[1307] FLOWER M. F. J. (1973);samp. OL-168;;COMOROS / ANJOUAN (NZWANI) / DIFFERENTIATED STAGE;;-12.17;44.41;-12.17;44.41;;;OUTCROP;;;SUBAERIAL;VOLCANIC ROCK;ANKARAMITE;;;;;;;;;;MINERAL / COMPONENT (INCL. GROUNDMASS);OLIVINE;;;;;PRIMARY;;;;;;;;;;;;;;;;;;;;;;;;;;;;;;;;;;;;;;;;;;;;;;;;;13.2;;;;;;;;;;;;;;;;;;;;;;;;;;;;;;;;;;;;;;;;;;;;;635;XRF;;;2210;;128;XRF;;;;;1330;XRF;;;;;70;XRF;;;117;XRF;;;;;;;;;;;;;;;;;;;;;;;;;;;;;;;;;;;;;;;;;;;;;;;;;;;;;;;;;;;;;;;;;;;;;;;;;;;;;;;;;;;;;;;;;;;;;;;;;;;;;;;;;;;;;;;;;;;;;;;;;;;;;;;;;;;;;;;;;;;;;;;;;;;;;;;;;;;;;;;;;;;;;;;;;;;;;;;;;;;;;;;;;;;;;;;;;;;;;;;;;;;;;;;;;;;
1973;[1307] FLOWER M. F. J. (1973);samp. OL-110;;COMOROS / ANJOUAN (NZWANI) / SHIELD STAGE;M^RO GEGE STREAM BED, 2 KM WEST OF GEGE;-12.15;44.3;-12.15;44.3;;;OUTCROP;;;SUBAERIAL;VOLCANIC ROCK;ANKARAMITE;;;;;;;;;;MINERAL / COMPONENT (INCL. GROUNDMASS);OLIVINE;;;;;PRIMARY;;;;;;;;;;;;;;;;;;;;;;;;;;;;;;;;;;;;;;;;;;;;;;;;;13.6;;;;;;;;;;;;;;;;;;;;;;;;;;;;;;;;;;;;;;;;;25;XRF;;;573;XRF;;;2903;;122;XRF;;;;;1058;XRF;;;;;82;XRF;;;101;XRF;;;;;;;;;;;;;;;;;;;;;;;;;;;;;;;;;;;;;;;;;;;;;;;;;;;;;;;;;;;;;;;;;;;;;;;;;;;;;;;;;;;;;;;;;;;;;;;;;;;;;;;;;;;;;;;;;;;;;;;;;;;;;;;;;;;;;;;;;;;;;;;;;;;;;;;;;;;;;;;;;;;;;;;;;;;;;;;;;;;;;;;;;;;;;;;;;;;;;;;;;;;;;;;;;;;
1973;[1307] FLOWER M. F. J. (1973);samp. OL-172;;COMOROS / ANJOUAN (NZWANI) / DIFFERENTIATED STAGE;;-12.17;44.41;-12.17;44.41;;;OUTCROP;;;SUBAERIAL;VOLCANIC ROCK;ANKARAMITE;;;;;;;;;;MINERAL / COMPONENT (INCL. GROUNDMASS);OLIVINE;;;;;PRIMARY;;;;;;;;;;;;;;;;;;;;;;;;;;;;;;;;;;;;;;;;;;;;;;;;;14.7;;;;;;;;;;;;;;;;;;;;;;;;;;;;;;;;;;;;;;;;;;;;;433;XRF;;;2970;;95;XRF;;;;;790;XRF;;;;;70;XRF;;;120;XRF;;;;;;;;;;;;;;;;;;;;;;;;;;;;;;;;;;;;;;;;;;;;;;;;;;;;;;;;;;;;;;;;;;;;;;;;;;;;;;;;;;;;;;;;;;;;;;;;;;;;;;;;;;;;;;;;;;;;;;;;;;;;;;;;;;;;;;;;;;;;;;;;;;;;;;;;;;;;;;;;;;;;;;;;;;;;;;;;;;;;;;;;;;;;;;;;;;;;;;;;;;;;;;;;;;;
1973;[1307] FLOWER M. F. J. (1973);samp. PX-154;;COMOROS / ANJOUAN (NZWANI) / DIFFERENTIATED STAGE;;-12.17;44.41;-12.17;44.41;;;OUTCROP;;;SUBAERIAL;VOLCANIC ROCK;ANKARAMITE;;;;;;;;;;MINERAL / COMPONENT (INCL. GROUNDMASS);PYROXENE;;;;;PRIMARY;;;;;;;;;;;;;;;;;;;;;;;;;;;;;;;;;;;;;;;;;;;;;;;;;5.6;;;;;;;;;;;;;;;;;;;;;;;;;;;;;;;;;;;;;;;;8538;407;XRF;;;1650;XRF;;;1162;;65;XRF;;;;;395;XRF;;;;;16;XRF;;;72;XRF;;;;;;;;;;;;;;;;;;;;;;73;XRF;;;;;;;;;;;;;;;;;;;;;;;;;;;;;;;;;;;;;;;;;;;;;;;;;;;;;;;;;;;;;;;;;;;;;;;;;;;;;;;;;;;;;;;;;;;;;;;;;;;;;;;;;;;;;;;;;;;;;;;;;;;;;;;;;;;;;;;;;;;;;;;;;;;;;;;;;;;;;;;;;;;;;;;;;;;;;;;;;;;;;;;;;;;;
1973;[1307] FLOWER M. F. J. (1973);samp. PX-35;;COMOROS / ANJOUAN (NZWANI) / SHIELD STAGE;M^RO CHOUNGOUI STREAM BED, NORTH OF POMONI;-12.15;44.3;-12.15;44.3;;;OUTCROP;;;SUBAERIAL;VOLCANIC ROCK;ANKARAMITE;;;;;;;;;;MINERAL / COMPONENT (INCL. GROUNDMASS);PYROXENE;;;;;PRIMARY;;;;;;;;;;;;;;;;;;;;;;;;;;;;;;;;;;;;;;;;;;;;;;;;;5.5;;;;;;;;;;;;;;;;;;;;;;;;;;;;;;;;;;;;;;;;8718;454;XRF;;;1610;XRF;;;1296;;76;XRF;;;;;281;XRF;;;;;16;XRF;;;43;XRF;;;;;;;;;;;;;;;;;;;;;;68;XRF;;;;;;;;;;;;;;;;;;;;;;;;;;;;;;;;;;;;;;;;;;;;;;;;;;;;;;;;;;;;;;;;;;;;;;;;;;;;;;;;;;;;;;;;;;;;;;;;;;;;;;;;;;;;;;;;;;;;;;;;;;;;;;;;;;;;;;;;;;;;;;;;;;;;;;;;;;;;;;;;;;;;;;;;;;;;;;;;;;;;;;;;;;;;
1973;[1307] FLOWER M. F. J. (1973);samp. PX-88;;COMOROS / ANJOUAN (NZWANI) / DIFFERENTIATED STAGE;;-12.17;44.41;-12.17;44.41;;;OUTCROP;;;SUBAERIAL;VOLCANIC ROCK;ANKARAMITE;;;;;;;;;;MINERAL / COMPONENT (INCL. GROUNDMASS);PYROXENE;;;;;PRIMARY;;;;;;;;;;;;;;;;;;;;;;;;;;;;;;;;;;;;;;;;;;;;;;;;;6.7;;;;;;;;;;;;;;;;;;;;;;;;;;;;;;;;;;;;;;;;13970;317;XRF;;;1404;XRF;;;1801;;68;XRF;;;;;163;XRF;;;;;32;XRF;;;21;XRF;;;;;;;;;;;;;;;;;;;;;;32;XRF;;;;;;;;;;;;;;;;;;;;;;;;;;;;;;;;;;;;;;;;;;;;;;;;;;;;;;;;;;;;;;;;;;;;;;;;;;;;;;;;;;;;;;;;;;;;;;;;;;;;;;;;;;;;;;;;;;;;;;;;;;;;;;;;;;;;;;;;;;;;;;;;;;;;;;;;;;;;;;;;;;;;;;;;;;;;;;;;;;;;;;;;;;;;
1973;[1307] FLOWER M. F. J. (1973);samp. PX-168;;COMOROS / ANJOUAN (NZWANI) / DIFFERENTIATED STAGE;;-12.17;44.41;-12.17;44.41;;;OUTCROP;;;SUBAERIAL;VOLCANIC ROCK;ANKARAMITE;;;;;;;;;;MINERAL / COMPONENT (INCL. GROUNDMASS);PYROXENE;;;;;PRIMARY;;;;;;;;;;;;;;;;;;;;;;;;;;;;;;;;;;;;;;;;;;;;;;;;;6.7;;;;;;;;;;;;;;;;;;;;;;;;;;;;;;;;;;;;;;;;11840;228;XRF;;;1576;XRF;;;1724;;51;XRF;;;;;144;XRF;;;;;30;XRF;;;58;XRF;;;;;;;;;;;;;;;;;;;;;;22;XRF;;;;;;;;;;;;;;;;;;;;;;;;;;;;;;;;;;;;;;;;;;;;;;;;;;;;;;;;;;;;;;;;;;;;;;;;;;;;;;;;;;;;;;;;;;;;;;;;;;;;;;;;;;;;;;;;;;;;;;;;;;;;;;;;;;;;;;;;;;;;;;;;;;;;;;;;;;;;;;;;;;;;;;;;;;;;;;;;;;;;;;;;;;;;
1973;[1307] FLOWER M. F. J. (1973);samp. PX-172;;COMOROS / ANJOUAN (NZWANI) / DIFFERENTIATED STAGE;;-12.17;44.41;-12.17;44.41;;;OUTCROP;;;SUBAERIAL;VOLCANIC ROCK;ANKARAMITE;;;;;;;;;;MINERAL / COMPONENT (INCL. GROUNDMASS);PYROXENE;;;;;PRIMARY;;;;;;;;;;;;;;;;;;;;;;;;;;;;;;;;;;;;;;;;;;;;;;;;;8.5;;;;;;;;;;;;;;;;;;;;;;;;;;;;;;;;;;;;;;;;15230;261;XRF;;;460;XRF;;;1935;;38;XRF;;;;;13;XRF;;;;;58;XRF;;;46;XRF;;;;;;;;;;;;;;;;;;;;;;13;XRF;;;;;;;;;;;;;;;;;;;;;;;;;;;;;;;;;;;;;;;;;;;;;;;;;;;;;;;;;;;;;;;;;;;;;;;;;;;;;;;;;;;;;;;;;;;;;;;;;;;;;;;;;;;;;;;;;;;;;;;;;;;;;;;;;;;;;;;;;;;;;;;;;;;;;;;;;;;;;;;;;;;;;;;;;;;;;;;;;;;;;;;;;;;;
1970;[1312] CANILHO M. H. (1970);samp. 2;;AZORES / FAIAL / CAPELINHOS;PRAIA DO NORTE;38.58;-28.7;38.58;-28.7;;;OUTCROP;;;SUBAERIAL;VOLCANIC ROCK;ANKARAMITE;;;;;;;;;;MINERAL / COMPONENT (INCL. GROUNDMASS);OLIVINE;;;;;PRIMARY;;;;;;;;37.59;0.12;0.59;;;;;1.42;;15.79;0.42;42.85;0.22;;;0.2;;;0.05;NOT;;;0.12;NOT;;;0.1;0.03;;;;;;;;;;;;;;;;;;;;;;;;;;;;;;;;;;;;;;;;;;;;;;;;;;;;;;;;;;;;;;;;;;;;;;;;;;;;;;;;;;;;;;;;;;;;;;;;;;;;;;;;;;;;;;;;;;;;;;;;;;;;;;;;;;;;;;;;;;;;;;;;;;;;;;;;;;;;;;;;;;;;;;;;;;;;;;;;;;;;;;;;;;;;;;;;;;;;;;;;;;;;0.70662;;;;;;;;;;;;;;;;;;;;;;;;;;;;;;;;;;;;;;;;;;;;;;;;;;;;;;;;;;;;;;;;;;;;;;;;;;;;;;;;;;;;;;;;;
1970;[1312] CANILHO M. H. (1970);samp. 2;;AZORES / FAIAL / CAPELINHOS;PRAIA DO NORTE;38.58;-28.7;38.58;-28.7;;;OUTCROP;;;SUBAERIAL;VOLCANIC ROCK;ANKARAMITE;;;;;;;;;;WHOLE ROCK;;;;;;;;;;;;;;46.08;2.13;12.33;;;;;2.3;;8.08;11.13;14.78;0.14;;;;;;0.79;NOT;;;2.54;NOT;;;0.29;0.03;;;;;;;;;;;;;;;;;;;;;;;;;;;;;;;;;;;;;;;;;;;;;;;;;;;;;;;;;;;;;;;;;;;;;;;;;;;;;;;;;;;;;;;;;;;;;;;;;;;;;;;;;;;;;;;;;;;;;;;;;;;;;;;;;;;;;;;;;;;;;;;;;;;;;;;;;;;;;;;;;;;;;;;;;;;;;;;;;;;;;;;;;;;;;;;;;;;;;;;;;;;;;;;;;;;;;;;;;;;;;;;;;;;;;;;;;;;;;;;;;;;;;;;;;;;;;;;;;;;;;;;;;;;;;;;;;;;;;;;;;;;;;;;;;;;;;