Year;CITATION;SAMPLE NAME;UNIQUE_ID;LOCATION;LOCATION COMMENT;LATITUDE (MIN.);LONGITUDE (MIN.);LATITUDE (MAX.);LONGITUDE (MAX.);ELEVATION (MIN.);ELEVATION (MAX.);SAMPLING TECHNIQUE;DRILLING DEPTH (MIN.);DRILLING DEPTH (MAX.);LAND/SEA (SAMPLING);ROCK TYPE;ROCK NAME;ROCK TEXTURE;SAMPLE COMMENT;AGE (MIN.);AGE (MAX.);GEOLOGICAL AGE;GEOLOGICAL AGE PREFIX;ERUPTION YEAR;ALTERATION;ALTERATION TYPE;TYPE OF MATERIAL;MINERAL / COMPONENT;SPOT (MINERAL);CRYSTAL;RIM / CORE (MINERAL GRAINS);GRAIN SIZE;PRIMARY/SECONDARY;INCLUSION TYPE;SPOT (INCLUSION);MINERAL (INCLUSION);RIM / CORE (INCLUSION);HOSTMINERAL (INCLUSION);HEATING;HEATING TEMPERATURE (?C);SIO2(WT%);TIO2(WT%);AL2O3(WT%);CR2O3(WT%);V2O3(WT%);V2O5(WT%);FE2O3T(WT%);FE2O3(WT%);FEOT(WT%);FEO(WT%);CAO(WT%);MGO(WT%);MNO(WT%);BAO(WT%);SRO(WT%);NIO(WT%);ZNO(WT%);COO(WT%);K2O(WT%);;;;NA2O(WT%);;;;P2O5(WT%);H2O(WT%);H2OP(WT%);H2OM(WT%);CO2(WT%);F(WT%);CL(WT%);CL2(WT%);SO3(WT%);S(WT%);LOI(WT%);O(WT%);SI(WT%);AL(WT%);TI(WT%);FE(WT%);MG(WT%);MN(WT%);CA(WT%);K(WT%): altern. values or methods;;;;NA(WT%);CR(WT%);NI(WT%);HE(CCMSTP/G);HE3(CCMSTP/G);HE4(CCMSTP/G): altern. values or methods;;;;LI(PPM);BE(PPM);B(PPM);F(PPM);NE20(CCMSTP/G);NE22(CCMSTP/G);P(PPM);S(PPM);CL(PPM);AR36(CCMSTP/G);AR40(CCMSTP/G);AR40(MOL/G): altern. values or methods;;;;AR40(PPB);K(PPM);SC(PPM): altern. values or methods;;;;;;TI(PPM);V(PPM): altern. values or methods;;;;CR(PPM): altern. values or methods;;;;MN(PPM);FE(PPM);CO(PPM): altern. values or methods;;;;;;NI(PPM): altern. values or methods;;;;;;CU(PPM): altern. values or methods;;;;ZN(PPM): altern. values or methods;;;;GA(PPM): altern. values or methods;;;;GE(PPM);AS(PPM);KR84(CCMSTP/G);RB(PPM): altern. values or methods;;;;SR(PPM): altern. values or methods;;;;Y(PPM): altern. values or methods;;;;ZR(PPM): altern. values or methods;;;;NB(PPM): altern. values or methods;;;;MO(PPM);RU(PPB);RH(PPB);PD(PPB);IN(PPM);SN(PPM);SB(PPM);XE132(CCMSTP/G);CS(PPM);BA(PPM): altern. values or methods;;;;LA(PPM): altern. values or methods;;;;CE(PPM): altern. values or methods;;;;PR(PPM): altern. values or methods;;;;ND(PPM): altern. values or methods;;;;SM(PPM): altern. values or methods;;;;EU(PPM): altern. values or methods;;;;GD(PPM);TB(PPM): altern. values or methods;;;;DY(PPM);HO(PPM);ER(PPM);TM(PPM);YB(PPM): altern. values or methods;;;;LU(PPM);HF(PPM): altern. values or methods;;;;TA(PPM);W(PPM);RE(PPB): altern. values or methods;;;;RE(PPT);OS(PPB): altern. values or methods;;;;OS(PPT);IR(PPB);PT(PPB);AU(PPB);HG(PPB);TL(PPM);PB(PPM): altern. values or methods;;;;PB210_ACT(DPM/G);TH(PPM): altern. values or methods;;;;TH(PPB);U(PPM): altern. values or methods;;;;U(PPB);CO2(PPM);H2O(PPM);ND143_ND144;ND148_ND144;SM147_ND144;SR87_SR86;RB87_SR86;PB206_PB204: altern. values or methods;;;;PB206_PB207;PB206_PB208;PB207_PB204: altern. values or methods;;;;PB207_PB206;PB208_PB204: altern. values or methods;;;;PB208_PB206;OS187_OS186;OS187_OS188: altern. values or methods;;;;RE187_OS188: altern. values or methods;;;;HF176_HF177;HE3_HE4;HE3_HE4(R/R(A)): altern. values or methods;;;;HE4_HE3: altern. values or methods;;;;;;HE4_HE3(R/R(A)): altern. values or methods;;;;AR38_AR36;AR40_AR36;NE20_NE22;NE21_NE22;XE129_XE132;PB206_U238;PB207_U235;PB210_U238;TH232_U238;U238_PB204;D13C(VS SMOW);D17O(VS VSMOW);D18O(PER MIL);D18O(VS PDB);D18O(VS SMOW);D18O(VS VSMOW);D34S(VS CDT);D44_40CA(VS SRM915A);D56FE(VS IRMM-014);DD(VS SMOW);ALBITE(MOL%);ACMITE(MOL%);ANORTHITE(MOL%);ENSTATITE(MOL%);FAYALITE(MOL%);FORSTERITE(MOL%);FERROSILITE(MOL%);HEMATITE(MOL%);LARNITE(MOL%);ORTHOCLASE(MOL%);PSEUDOBROOKITE(MOL%);TEPHROITE(MOL%);ULVOSPINEL(MOL%);WOLLASTONITE(MOL%);AGE(KA);AGE(MA): altern. values or methods;;;;;;;;AGE_PB207_PB206(MA);AGE_PB207_U235(MA);AGE_PB206_U238(MA);
2010;[14544] ROGERS N. W.(2010)  [GeoReM [5149] ];samp. 01.03.24.09;;ETHIOPIAN PLATEAU / NORTHERN ETHIOPIAN PLATEAU / DILB SECTION;;11.92;39.36;11.96;39.42;;;OUTCROP;;;SUBAERIAL;VOLCANIC ROCK;ANKARAMITE;;;30000000;30000000;OLIGOCENE;;;;;MINERAL / COMPONENT (INCL. GROUNDMASS);OLIVINE;;;;;PRIMARY;;;;;;;;38.863;0.024;0.055;0.047;;;;;20.42;;0.255;39.228;0.282;;;0.265;;;;;;;0.053;EMP (EPMA);;;;;;;;;;;;;;;;;;;;;;;;;;;;;;;;;;;;;;;;;;;;;;;;;;;;;;;;;;;;;;;;;;;;;;;;;;;;;;;;;;;;;;;;;;;;;;;;;;;;;;;;;;;;;;;;;;;;;;;;;;;;;;;;;;;;;;;;;;;;;;;;;;;;;;;;;;;;;;;;;;;;;;;;;;;;;;;;;;;;;;;;;;;;;;;;;;;;;;;;;;;;;;;;;;;;;;;;;;;;;;;;;;;;;;;;;;;;;;;;;;;;;;;;;;;;;;;;;;;;;;;;;;;;;;;;;;;;;;;;;;;;;;;;;;;;;;;;;
2010;[14544] ROGERS N. W.(2010)  [GeoReM [5149] ];samp. 01.03.24.09;;ETHIOPIAN PLATEAU / NORTHERN ETHIOPIAN PLATEAU / DILB SECTION;;11.92;39.36;11.96;39.42;;;OUTCROP;;;SUBAERIAL;VOLCANIC ROCK;ANKARAMITE;;;30000000;30000000;OLIGOCENE;;;;;MINERAL / COMPONENT (INCL. GROUNDMASS);OLIVINE;;;;;PRIMARY;;;;;;;;39.004;0.002;0.113;0.022;;;;;20.857;;0.275;38.096;0.27;;;0.263;;;;;;;0.048;EMP (EPMA);;;;;;;;;;;;;;;;;;;;;;;;;;;;;;;;;;;;;;;;;;;;;;;;;;;;;;;;;;;;;;;;;;;;;;;;;;;;;;;;;;;;;;;;;;;;;;;;;;;;;;;;;;;;;;;;;;;;;;;;;;;;;;;;;;;;;;;;;;;;;;;;;;;;;;;;;;;;;;;;;;;;;;;;;;;;;;;;;;;;;;;;;;;;;;;;;;;;;;;;;;;;;;;;;;;;;;;;;;;;;;;;;;;;;;;;;;;;;;;;;;;;;;;;;;;;;;;;;;;;;;;;;;;;;;;;;;;;;;;;;;;;;;;;;;;;;;;;;
2010;[14544] ROGERS N. W.(2010)  [GeoReM [5149] ];samp. 01.03.24.09;;ETHIOPIAN PLATEAU / NORTHERN ETHIOPIAN PLATEAU / DILB SECTION;;11.92;39.36;11.96;39.42;;;OUTCROP;;;SUBAERIAL;VOLCANIC ROCK;ANKARAMITE;;;30000000;30000000;OLIGOCENE;;;;;MINERAL / COMPONENT (INCL. GROUNDMASS);OLIVINE;;;;;PRIMARY;;;;;;;;39.796;0.013;0.153;0.022;;;;;21.244;;0.312;38.298;0.272;;;0.269;;;;;;;0.04;EMP (EPMA);;;;;;;;;;;;;;;;;;;;;;;;;;;;;;;;;;;;;;;;;;;;;;;;;;;;;;;;;;;;;;;;;;;;;;;;;;;;;;;;;;;;;;;;;;;;;;;;;;;;;;;;;;;;;;;;;;;;;;;;;;;;;;;;;;;;;;;;;;;;;;;;;;;;;;;;;;;;;;;;;;;;;;;;;;;;;;;;;;;;;;;;;;;;;;;;;;;;;;;;;;;;;;;;;;;;;;;;;;;;;;;;;;;;;;;;;;;;;;;;;;;;;;;;;;;;;;;;;;;;;;;;;;;;;;;;;;;;;;;;;;;;;;;;;;;;;;;;;
2010;[14544] ROGERS N. W.(2010)  [GeoReM [5149] ];samp. 01.03.24.09;;ETHIOPIAN PLATEAU / NORTHERN ETHIOPIAN PLATEAU / DILB SECTION;;11.92;39.36;11.96;39.42;;;OUTCROP;;;SUBAERIAL;VOLCANIC ROCK;ANKARAMITE;;;30000000;30000000;OLIGOCENE;;;;;MINERAL / COMPONENT (INCL. GROUNDMASS);OLIVINE;;;;;PRIMARY;;;;;;;;39.58;0.034;0.061;0.002;;;;;20.341;;0.324;39.542;0.265;;;0.253;;;;;;;0.096;EMP (EPMA);;;;;;;;;;;;;;;;;;;;;;;;;;;;;;;;;;;;;;;;;;;;;;;;;;;;;;;;;;;;;;;;;;;;;;;;;;;;;;;;;;;;;;;;;;;;;;;;;;;;;;;;;;;;;;;;;;;;;;;;;;;;;;;;;;;;;;;;;;;;;;;;;;;;;;;;;;;;;;;;;;;;;;;;;;;;;;;;;;;;;;;;;;;;;;;;;;;;;;;;;;;;;;;;;;;;;;;;;;;;;;;;;;;;;;;;;;;;;;;;;;;;;;;;;;;;;;;;;;;;;;;;;;;;;;;;;;;;;;;;;;;;;;;;;;;;;;;;;
2010;[14544] ROGERS N. W.(2010)  [GeoReM [5149] ];samp. 01.03.24.09;;ETHIOPIAN PLATEAU / NORTHERN ETHIOPIAN PLATEAU / DILB SECTION;;11.92;39.36;11.96;39.42;;;OUTCROP;;;SUBAERIAL;VOLCANIC ROCK;ANKARAMITE;;;30000000;30000000;OLIGOCENE;;;;;MINERAL / COMPONENT (INCL. GROUNDMASS);OLIVINE;;;;;PRIMARY;;;;;;;;39.137;0.035;0.095;0.016;;;;;20.278;;0.305;39.001;0.266;;;0.273;;;;;;;0.072;EMP (EPMA);;;;;;;;;;;;;;;;;;;;;;;;;;;;;;;;;;;;;;;;;;;;;;;;;;;;;;;;;;;;;;;;;;;;;;;;;;;;;;;;;;;;;;;;;;;;;;;;;;;;;;;;;;;;;;;;;;;;;;;;;;;;;;;;;;;;;;;;;;;;;;;;;;;;;;;;;;;;;;;;;;;;;;;;;;;;;;;;;;;;;;;;;;;;;;;;;;;;;;;;;;;;;;;;;;;;;;;;;;;;;;;;;;;;;;;;;;;;;;;;;;;;;;;;;;;;;;;;;;;;;;;;;;;;;;;;;;;;;;;;;;;;;;;;;;;;;;;;;
2010;[14544] ROGERS N. W.(2010)  [GeoReM [5149] ];samp. 01.03.24.09;;ETHIOPIAN PLATEAU / NORTHERN ETHIOPIAN PLATEAU / DILB SECTION;;11.92;39.36;11.96;39.42;;;OUTCROP;;;SUBAERIAL;VOLCANIC ROCK;ANKARAMITE;;;30000000;30000000;OLIGOCENE;;;;;MINERAL / COMPONENT (INCL. GROUNDMASS);OLIVINE;;;;;PRIMARY;;;;;;;;38.731;0.028;0.326;0.028;;;;;26.563;;0.471;32.011;0.306;;;0.203;;;;;;;0.017;EMP (EPMA);;;;;;;;;;;;;;;;;;;;;;;;;;;;;;;;;;;;;;;;;;;;;;;;;;;;;;;;;;;;;;;;;;;;;;;;;;;;;;;;;;;;;;;;;;;;;;;;;;;;;;;;;;;;;;;;;;;;;;;;;;;;;;;;;;;;;;;;;;;;;;;;;;;;;;;;;;;;;;;;;;;;;;;;;;;;;;;;;;;;;;;;;;;;;;;;;;;;;;;;;;;;;;;;;;;;;;;;;;;;;;;;;;;;;;;;;;;;;;;;;;;;;;;;;;;;;;;;;;;;;;;;;;;;;;;;;;;;;;;;;;;;;;;;;;;;;;;;;
2010;[14544] ROGERS N. W.(2010)  [GeoReM [5149] ];samp. 01.03.24.09;;ETHIOPIAN PLATEAU / NORTHERN ETHIOPIAN PLATEAU / DILB SECTION;;11.92;39.36;11.96;39.42;;;OUTCROP;;;SUBAERIAL;VOLCANIC ROCK;ANKARAMITE;;;30000000;30000000;OLIGOCENE;;;;;MINERAL / COMPONENT (INCL. GROUNDMASS);OLIVINE;;;;;PRIMARY;;;;;;;;38.921;0.029;0.012;0.011;;;;;23.387;;0.167;37.477;0.359;;;0.181;;;;;;;0.002;EMP (EPMA);;;;;;;;;;;;;;;;;;;;;;;;;;;;;;;;;;;;;;;;;;;;;;;;;;;;;;;;;;;;;;;;;;;;;;;;;;;;;;;;;;;;;;;;;;;;;;;;;;;;;;;;;;;;;;;;;;;;;;;;;;;;;;;;;;;;;;;;;;;;;;;;;;;;;;;;;;;;;;;;;;;;;;;;;;;;;;;;;;;;;;;;;;;;;;;;;;;;;;;;;;;;;;;;;;;;;;;;;;;;;;;;;;;;;;;;;;;;;;;;;;;;;;;;;;;;;;;;;;;;;;;;;;;;;;;;;;;;;;;;;;;;;;;;;;;;;;;;;
2010;[14544] ROGERS N. W.(2010)  [GeoReM [5149] ];samp. 01.03.24.09;;ETHIOPIAN PLATEAU / NORTHERN ETHIOPIAN PLATEAU / DILB SECTION;;11.92;39.36;11.96;39.42;;;OUTCROP;;;SUBAERIAL;VOLCANIC ROCK;ANKARAMITE;;;30000000;30000000;OLIGOCENE;;;;;MINERAL / COMPONENT (INCL. GROUNDMASS);OLIVINE;;;;;PRIMARY;;;;;;;;39.415;0.025;0.021;0.002;;;;;23.692;;0.154;37.819;0.369;;;0.163;;;;;;;0.007;EMP (EPMA);;;;;;;;;;;;;;;;;;;;;;;;;;;;;;;;;;;;;;;;;;;;;;;;;;;;;;;;;;;;;;;;;;;;;;;;;;;;;;;;;;;;;;;;;;;;;;;;;;;;;;;;;;;;;;;;;;;;;;;;;;;;;;;;;;;;;;;;;;;;;;;;;;;;;;;;;;;;;;;;;;;;;;;;;;;;;;;;;;;;;;;;;;;;;;;;;;;;;;;;;;;;;;;;;;;;;;;;;;;;;;;;;;;;;;;;;;;;;;;;;;;;;;;;;;;;;;;;;;;;;;;;;;;;;;;;;;;;;;;;;;;;;;;;;;;;;;;;;
2010;[14544] ROGERS N. W.(2010)  [GeoReM [5149] ];samp. 01.03.24.09;;ETHIOPIAN PLATEAU / NORTHERN ETHIOPIAN PLATEAU / DILB SECTION;;11.92;39.36;11.96;39.42;;;OUTCROP;;;SUBAERIAL;VOLCANIC ROCK;ANKARAMITE;;;30000000;30000000;OLIGOCENE;;;;;MINERAL / COMPONENT (INCL. GROUNDMASS);OLIVINE;;;;;PRIMARY;;;;;;;;38.379;0.054;0.238;0.008;;;;;29.33;;0.234;32.703;0.429;;;0.141;;;;;;;0.07;EMP (EPMA);;;;;;;;;;;;;;;;;;;;;;;;;;;;;;;;;;;;;;;;;;;;;;;;;;;;;;;;;;;;;;;;;;;;;;;;;;;;;;;;;;;;;;;;;;;;;;;;;;;;;;;;;;;;;;;;;;;;;;;;;;;;;;;;;;;;;;;;;;;;;;;;;;;;;;;;;;;;;;;;;;;;;;;;;;;;;;;;;;;;;;;;;;;;;;;;;;;;;;;;;;;;;;;;;;;;;;;;;;;;;;;;;;;;;;;;;;;;;;;;;;;;;;;;;;;;;;;;;;;;;;;;;;;;;;;;;;;;;;;;;;;;;;;;;;;;;;;;;
2010;[14544] ROGERS N. W.(2010)  [GeoReM [5149] ];samp. 01.03.24.09;;ETHIOPIAN PLATEAU / NORTHERN ETHIOPIAN PLATEAU / DILB SECTION;;11.92;39.36;11.96;39.42;;;OUTCROP;;;SUBAERIAL;VOLCANIC ROCK;ANKARAMITE;;;30000000;30000000;OLIGOCENE;;;;;MINERAL / COMPONENT (INCL. GROUNDMASS);OLIVINE;;;;;PRIMARY;;;;;;;;39.083;0.029;0.004;0;;;;;23.485;;0.193;37.49;0.348;;;0.162;;;;;;;0.016;EMP (EPMA);;;;;;;;;;;;;;;;;;;;;;;;;;;;;;;;;;;;;;;;;;;;;;;;;;;;;;;;;;;;;;;;;;;;;;;;;;;;;;;;;;;;;;;;;;;;;;;;;;;;;;;;;;;;;;;;;;;;;;;;;;;;;;;;;;;;;;;;;;;;;;;;;;;;;;;;;;;;;;;;;;;;;;;;;;;;;;;;;;;;;;;;;;;;;;;;;;;;;;;;;;;;;;;;;;;;;;;;;;;;;;;;;;;;;;;;;;;;;;;;;;;;;;;;;;;;;;;;;;;;;;;;;;;;;;;;;;;;;;;;;;;;;;;;;;;;;;;;;
2010;[14544] ROGERS N. W.(2010)  [GeoReM [5149] ];samp. 01.03.24.09;;ETHIOPIAN PLATEAU / NORTHERN ETHIOPIAN PLATEAU / DILB SECTION;;11.92;39.36;11.96;39.42;;;OUTCROP;;;SUBAERIAL;VOLCANIC ROCK;ANKARAMITE;;;30000000;30000000;OLIGOCENE;;;;;MINERAL / COMPONENT (INCL. GROUNDMASS);OLIVINE;;;;;PRIMARY;;;;;;;;39.057;0.015;0.033;0.007;;;;;23.586;;0.167;37.849;0.369;;;0.174;;;;;;;0;EMP (EPMA);;;;;;;;;;;;;;;;;;;;;;;;;;;;;;;;;;;;;;;;;;;;;;;;;;;;;;;;;;;;;;;;;;;;;;;;;;;;;;;;;;;;;;;;;;;;;;;;;;;;;;;;;;;;;;;;;;;;;;;;;;;;;;;;;;;;;;;;;;;;;;;;;;;;;;;;;;;;;;;;;;;;;;;;;;;;;;;;;;;;;;;;;;;;;;;;;;;;;;;;;;;;;;;;;;;;;;;;;;;;;;;;;;;;;;;;;;;;;;;;;;;;;;;;;;;;;;;;;;;;;;;;;;;;;;;;;;;;;;;;;;;;;;;;;;;;;;;;;
2010;[14544] ROGERS N. W.(2010)  [GeoReM [5149] ];samp. 01.03.24.09;;ETHIOPIAN PLATEAU / NORTHERN ETHIOPIAN PLATEAU / DILB SECTION;;11.92;39.36;11.96;39.42;;;OUTCROP;;;SUBAERIAL;VOLCANIC ROCK;ANKARAMITE;;;30000000;30000000;OLIGOCENE;;;;;MINERAL / COMPONENT (INCL. GROUNDMASS);OLIVINE;;;;;PRIMARY;;;;;;;;38.812;0.014;0.032;0;;;;;23.733;;0.192;37.549;0.36;;;0.15;;;;;;;0.012;EMP (EPMA);;;;;;;;;;;;;;;;;;;;;;;;;;;;;;;;;;;;;;;;;;;;;;;;;;;;;;;;;;;;;;;;;;;;;;;;;;;;;;;;;;;;;;;;;;;;;;;;;;;;;;;;;;;;;;;;;;;;;;;;;;;;;;;;;;;;;;;;;;;;;;;;;;;;;;;;;;;;;;;;;;;;;;;;;;;;;;;;;;;;;;;;;;;;;;;;;;;;;;;;;;;;;;;;;;;;;;;;;;;;;;;;;;;;;;;;;;;;;;;;;;;;;;;;;;;;;;;;;;;;;;;;;;;;;;;;;;;;;;;;;;;;;;;;;;;;;;;;;
2010;[14544] ROGERS N. W.(2010)  [GeoReM [5149] ];samp. 01.03.24.09;;ETHIOPIAN PLATEAU / NORTHERN ETHIOPIAN PLATEAU / DILB SECTION;;11.92;39.36;11.96;39.42;;;OUTCROP;;;SUBAERIAL;VOLCANIC ROCK;ANKARAMITE;;;30000000;30000000;OLIGOCENE;;;;;MINERAL / COMPONENT (INCL. GROUNDMASS);OLIVINE;;;;;PRIMARY;;;;;;;;38.712;0.03;0.035;0;;;;;23.198;;0.197;37.195;0.329;;;0.156;;;;;;;0.013;EMP (EPMA);;;;;;;;;;;;;;;;;;;;;;;;;;;;;;;;;;;;;;;;;;;;;;;;;;;;;;;;;;;;;;;;;;;;;;;;;;;;;;;;;;;;;;;;;;;;;;;;;;;;;;;;;;;;;;;;;;;;;;;;;;;;;;;;;;;;;;;;;;;;;;;;;;;;;;;;;;;;;;;;;;;;;;;;;;;;;;;;;;;;;;;;;;;;;;;;;;;;;;;;;;;;;;;;;;;;;;;;;;;;;;;;;;;;;;;;;;;;;;;;;;;;;;;;;;;;;;;;;;;;;;;;;;;;;;;;;;;;;;;;;;;;;;;;;;;;;;;;;
2010;[14544] ROGERS N. W.(2010)  [GeoReM [5149] ];samp. 01.03.24.09;;ETHIOPIAN PLATEAU / NORTHERN ETHIOPIAN PLATEAU / DILB SECTION;;11.92;39.36;11.96;39.42;;;OUTCROP;;;SUBAERIAL;VOLCANIC ROCK;ANKARAMITE;;;30000000;30000000;OLIGOCENE;;;;;MINERAL / COMPONENT (INCL. GROUNDMASS);OLIVINE;;;;;PRIMARY;;;;;;;;37.273;0.05;0.036;0.027;;;;;29.614;;0.184;31.87;0.417;;;0.131;;;;;;;0.042;EMP (EPMA);;;;;;;;;;;;;;;;;;;;;;;;;;;;;;;;;;;;;;;;;;;;;;;;;;;;;;;;;;;;;;;;;;;;;;;;;;;;;;;;;;;;;;;;;;;;;;;;;;;;;;;;;;;;;;;;;;;;;;;;;;;;;;;;;;;;;;;;;;;;;;;;;;;;;;;;;;;;;;;;;;;;;;;;;;;;;;;;;;;;;;;;;;;;;;;;;;;;;;;;;;;;;;;;;;;;;;;;;;;;;;;;;;;;;;;;;;;;;;;;;;;;;;;;;;;;;;;;;;;;;;;;;;;;;;;;;;;;;;;;;;;;;;;;;;;;;;;;;
2010;[14544] ROGERS N. W.(2010)  [GeoReM [5149] ];samp. 01.03.24.09;;ETHIOPIAN PLATEAU / NORTHERN ETHIOPIAN PLATEAU / DILB SECTION;;11.92;39.36;11.96;39.42;;;OUTCROP;;;SUBAERIAL;VOLCANIC ROCK;ANKARAMITE;;;30000000;30000000;OLIGOCENE;;;;;MINERAL / COMPONENT (INCL. GROUNDMASS);OLIVINE;;;;;PRIMARY;;;;;;;;40.033;0.01;0.039;0.024;;;;;17.993;;0.252;41.874;0.249;;;0.291;;;;;;;0.007;EMP (EPMA);;;;;;;;;;;;;;;;;;;;;;;;;;;;;;;;;;;;;;;;;;;;;;;;;;;;;;;;;;;;;;;;;;;;;;;;;;;;;;;;;;;;;;;;;;;;;;;;;;;;;;;;;;;;;;;;;;;;;;;;;;;;;;;;;;;;;;;;;;;;;;;;;;;;;;;;;;;;;;;;;;;;;;;;;;;;;;;;;;;;;;;;;;;;;;;;;;;;;;;;;;;;;;;;;;;;;;;;;;;;;;;;;;;;;;;;;;;;;;;;;;;;;;;;;;;;;;;;;;;;;;;;;;;;;;;;;;;;;;;;;;;;;;;;;;;;;;;;;
2010;[14544] ROGERS N. W.(2010)  [GeoReM [5149] ];samp. 01.03.24.09;;ETHIOPIAN PLATEAU / NORTHERN ETHIOPIAN PLATEAU / DILB SECTION;;11.92;39.36;11.96;39.42;;;OUTCROP;;;SUBAERIAL;VOLCANIC ROCK;ANKARAMITE;;;30000000;30000000;OLIGOCENE;;;;;MINERAL / COMPONENT (INCL. GROUNDMASS);OLIVINE;;;;;PRIMARY;;;;;;;;39.63;0.022;0.024;0.005;;;;;17.949;;0.24;41.277;0.237;;;0.285;;;;;;;0.004;EMP (EPMA);;;;;;;;;;;;;;;;;;;;;;;;;;;;;;;;;;;;;;;;;;;;;;;;;;;;;;;;;;;;;;;;;;;;;;;;;;;;;;;;;;;;;;;;;;;;;;;;;;;;;;;;;;;;;;;;;;;;;;;;;;;;;;;;;;;;;;;;;;;;;;;;;;;;;;;;;;;;;;;;;;;;;;;;;;;;;;;;;;;;;;;;;;;;;;;;;;;;;;;;;;;;;;;;;;;;;;;;;;;;;;;;;;;;;;;;;;;;;;;;;;;;;;;;;;;;;;;;;;;;;;;;;;;;;;;;;;;;;;;;;;;;;;;;;;;;;;;;;
2010;[14544] ROGERS N. W.(2010)  [GeoReM [5149] ];samp. 01.03.24.09;;ETHIOPIAN PLATEAU / NORTHERN ETHIOPIAN PLATEAU / DILB SECTION;;11.92;39.36;11.96;39.42;;;OUTCROP;;;SUBAERIAL;VOLCANIC ROCK;ANKARAMITE;;;30000000;30000000;OLIGOCENE;;;;;MINERAL / COMPONENT (INCL. GROUNDMASS);OLIVINE;;;;;PRIMARY;;;;;;;;40.363;0.029;0.003;0.038;;;;;17.802;;0.255;42.305;0.236;;;0.297;;;;;;;0.014;EMP (EPMA);;;;;;;;;;;;;;;;;;;;;;;;;;;;;;;;;;;;;;;;;;;;;;;;;;;;;;;;;;;;;;;;;;;;;;;;;;;;;;;;;;;;;;;;;;;;;;;;;;;;;;;;;;;;;;;;;;;;;;;;;;;;;;;;;;;;;;;;;;;;;;;;;;;;;;;;;;;;;;;;;;;;;;;;;;;;;;;;;;;;;;;;;;;;;;;;;;;;;;;;;;;;;;;;;;;;;;;;;;;;;;;;;;;;;;;;;;;;;;;;;;;;;;;;;;;;;;;;;;;;;;;;;;;;;;;;;;;;;;;;;;;;;;;;;;;;;;;;;
2010;[14544] ROGERS N. W.(2010)  [GeoReM [5149] ];samp. 01.03.24.09;;ETHIOPIAN PLATEAU / NORTHERN ETHIOPIAN PLATEAU / DILB SECTION;;11.92;39.36;11.96;39.42;;;OUTCROP;;;SUBAERIAL;VOLCANIC ROCK;ANKARAMITE;;;30000000;30000000;OLIGOCENE;;;;;MINERAL / COMPONENT (INCL. GROUNDMASS);OLIVINE;;;;;PRIMARY;;;;;;;;39.469;0.022;0.096;0.049;;;;;18.273;;0.305;39.842;0.235;;;0.266;;;;;;;0.009;EMP (EPMA);;;;;;;;;;;;;;;;;;;;;;;;;;;;;;;;;;;;;;;;;;;;;;;;;;;;;;;;;;;;;;;;;;;;;;;;;;;;;;;;;;;;;;;;;;;;;;;;;;;;;;;;;;;;;;;;;;;;;;;;;;;;;;;;;;;;;;;;;;;;;;;;;;;;;;;;;;;;;;;;;;;;;;;;;;;;;;;;;;;;;;;;;;;;;;;;;;;;;;;;;;;;;;;;;;;;;;;;;;;;;;;;;;;;;;;;;;;;;;;;;;;;;;;;;;;;;;;;;;;;;;;;;;;;;;;;;;;;;;;;;;;;;;;;;;;;;;;;;
2010;[14544] ROGERS N. W.(2010)  [GeoReM [5149] ];samp. 01.03.24.09;;ETHIOPIAN PLATEAU / NORTHERN ETHIOPIAN PLATEAU / DILB SECTION;;11.92;39.36;11.96;39.42;;;OUTCROP;;;SUBAERIAL;VOLCANIC ROCK;ANKARAMITE;;;30000000;30000000;OLIGOCENE;;;;;MINERAL / COMPONENT (INCL. GROUNDMASS);OLIVINE;;;;;PRIMARY;;;;;;;;40.177;0.006;0.034;0.061;;;;;14.002;;0.343;43.845;0.176;;;0.298;;;;;;;0.071;EMP (EPMA);;;;;;;;;;;;;;;;;;;;;;;;;;;;;;;;;;;;;;;;;;;;;;;;;;;;;;;;;;;;;;;;;;;;;;;;;;;;;;;;;;;;;;;;;;;;;;;;;;;;;;;;;;;;;;;;;;;;;;;;;;;;;;;;;;;;;;;;;;;;;;;;;;;;;;;;;;;;;;;;;;;;;;;;;;;;;;;;;;;;;;;;;;;;;;;;;;;;;;;;;;;;;;;;;;;;;;;;;;;;;;;;;;;;;;;;;;;;;;;;;;;;;;;;;;;;;;;;;;;;;;;;;;;;;;;;;;;;;;;;;;;;;;;;;;;;;;;;;
2010;[14544] ROGERS N. W.(2010)  [GeoReM [5149] ];samp. 01.03.24.09;;ETHIOPIAN PLATEAU / NORTHERN ETHIOPIAN PLATEAU / DILB SECTION;;11.92;39.36;11.96;39.42;;;OUTCROP;;;SUBAERIAL;VOLCANIC ROCK;ANKARAMITE;;;30000000;30000000;OLIGOCENE;;;;;MINERAL / COMPONENT (INCL. GROUNDMASS);OLIVINE;;;;;PRIMARY;;;;;;;;39.699;0.019;0.016;0.029;;;;;18.084;;0.301;41.196;0.223;;;0.285;;;;;;;0.042;EMP (EPMA);;;;;;;;;;;;;;;;;;;;;;;;;;;;;;;;;;;;;;;;;;;;;;;;;;;;;;;;;;;;;;;;;;;;;;;;;;;;;;;;;;;;;;;;;;;;;;;;;;;;;;;;;;;;;;;;;;;;;;;;;;;;;;;;;;;;;;;;;;;;;;;;;;;;;;;;;;;;;;;;;;;;;;;;;;;;;;;;;;;;;;;;;;;;;;;;;;;;;;;;;;;;;;;;;;;;;;;;;;;;;;;;;;;;;;;;;;;;;;;;;;;;;;;;;;;;;;;;;;;;;;;;;;;;;;;;;;;;;;;;;;;;;;;;;;;;;;;;;
2010;[14544] ROGERS N. W.(2010)  [GeoReM [5149] ];samp. 01.03.24.09;;ETHIOPIAN PLATEAU / NORTHERN ETHIOPIAN PLATEAU / DILB SECTION;;11.92;39.36;11.96;39.42;;;OUTCROP;;;SUBAERIAL;VOLCANIC ROCK;ANKARAMITE;;;30000000;30000000;OLIGOCENE;;;;;MINERAL / COMPONENT (INCL. GROUNDMASS);OLIVINE;;;;;PRIMARY;;;;;;;;40.456;0.037;0.072;0.028;;;;;16.231;;0.28;42.946;0.214;;;0.291;;;;;;;0.114;EMP (EPMA);;;;;;;;;;;;;;;;;;;;;;;;;;;;;;;;;;;;;;;;;;;;;;;;;;;;;;;;;;;;;;;;;;;;;;;;;;;;;;;;;;;;;;;;;;;;;;;;;;;;;;;;;;;;;;;;;;;;;;;;;;;;;;;;;;;;;;;;;;;;;;;;;;;;;;;;;;;;;;;;;;;;;;;;;;;;;;;;;;;;;;;;;;;;;;;;;;;;;;;;;;;;;;;;;;;;;;;;;;;;;;;;;;;;;;;;;;;;;;;;;;;;;;;;;;;;;;;;;;;;;;;;;;;;;;;;;;;;;;;;;;;;;;;;;;;;;;;;;
2010;[14544] ROGERS N. W.(2010)  [GeoReM [5149] ];samp. 01.03.24.09;;ETHIOPIAN PLATEAU / NORTHERN ETHIOPIAN PLATEAU / DILB SECTION;;11.92;39.36;11.96;39.42;;;OUTCROP;;;SUBAERIAL;VOLCANIC ROCK;ANKARAMITE;;;30000000;30000000;OLIGOCENE;;;;;MINERAL / COMPONENT (INCL. GROUNDMASS);OLIVINE;;;;;PRIMARY;;;;;;;;39.354;0.033;0.014;0.024;;;;;17.081;;0.261;41.556;0.23;;;0.292;;;;;;;0.03;EMP (EPMA);;;;;;;;;;;;;;;;;;;;;;;;;;;;;;;;;;;;;;;;;;;;;;;;;;;;;;;;;;;;;;;;;;;;;;;;;;;;;;;;;;;;;;;;;;;;;;;;;;;;;;;;;;;;;;;;;;;;;;;;;;;;;;;;;;;;;;;;;;;;;;;;;;;;;;;;;;;;;;;;;;;;;;;;;;;;;;;;;;;;;;;;;;;;;;;;;;;;;;;;;;;;;;;;;;;;;;;;;;;;;;;;;;;;;;;;;;;;;;;;;;;;;;;;;;;;;;;;;;;;;;;;;;;;;;;;;;;;;;;;;;;;;;;;;;;;;;;;;
2010;[14544] ROGERS N. W.(2010)  [GeoReM [5149] ];samp. 01.03.24.07;;ETHIOPIAN PLATEAU / NORTHERN ETHIOPIAN PLATEAU / DILB SECTION;;11.92;39.36;11.96;39.42;;;OUTCROP;;;SUBAERIAL;VOLCANIC ROCK;ANKARAMITE;;;30000000;30000000;OLIGOCENE;;;;;MINERAL / COMPONENT (INCL. GROUNDMASS);CLINOPYROXENE;;;;;PRIMARY;;;;;;;;49.978;1.167;2.148;0.47;;;;;6.361;;21.369;16.012;0.141;;;0.03;;;0;EMP (EPMA);;;0.327;EMP (EPMA);;;0.004;;;;;;;;;;;;;;;;;;;;;;;;;;;;;;;;;;;;;;;;;;;;;;;;;;;;;;;;;;;;;;;;;;;;;;;;;;;;;;;;;;;;;;;;;;;;;;;;;;;;;;;;;;;;;;;;;;;;;;;;;;;;;;;;;;;;;;;;;;;;;;;;;;;;;;;;;;;;;;;;;;;;;;;;;;;;;;;;;;;;;;;;;;;;;;;;;;;;;;;;;;;;;;;;;;;;;;;;;;;;;;;;;;;;;;;;;;;;;;;;;;;;;;;;;;;;;;;;;;;;;;;;;;;;;;;45.8284526981498;;;10.2134989065401;;;;;;;43.9580483953101;;;;;;;;;;;;;