Year;CITATION;SAMPLE NAME;UNIQUE_ID;LOCATION;LOCATION COMMENT;LATITUDE (MIN.);LONGITUDE (MIN.);LATITUDE (MAX.);LONGITUDE (MAX.);ELEVATION (MIN.);ELEVATION (MAX.);SAMPLING TECHNIQUE;DRILLING DEPTH (MIN.);DRILLING DEPTH (MAX.);LAND/SEA (SAMPLING);ROCK TYPE;ROCK NAME;ROCK TEXTURE;SAMPLE COMMENT;AGE (MIN.);AGE (MAX.);GEOLOGICAL AGE;GEOLOGICAL AGE PREFIX;ERUPTION YEAR;ALTERATION;ALTERATION TYPE;TYPE OF MATERIAL;MINERAL / COMPONENT;SPOT (MINERAL);CRYSTAL;RIM / CORE (MINERAL GRAINS);GRAIN SIZE;PRIMARY/SECONDARY;INCLUSION TYPE;SPOT (INCLUSION);MINERAL (INCLUSION);RIM / CORE (INCLUSION);HOSTMINERAL (INCLUSION);HEATING;HEATING TEMPERATURE (?C);SIO2(WT%);TIO2(WT%);AL2O3(WT%);CR2O3(WT%);V2O3(WT%);V2O5(WT%);FE2O3T(WT%);FE2O3(WT%);FEOT(WT%);FEO(WT%);CAO(WT%);MGO(WT%);MNO(WT%);BAO(WT%);SRO(WT%);NIO(WT%);ZNO(WT%);COO(WT%);K2O(WT%);;;;NA2O(WT%);;;;P2O5(WT%);H2O(WT%);H2OP(WT%);H2OM(WT%);CO2(WT%);F(WT%);CL(WT%);CL2(WT%);SO3(WT%);S(WT%);LOI(WT%);O(WT%);SI(WT%);AL(WT%);TI(WT%);FE(WT%);MG(WT%);MN(WT%);CA(WT%);K(WT%): altern. values or methods;;;;NA(WT%);CR(WT%);NI(WT%);HE(CCMSTP/G);HE3(CCMSTP/G);HE4(CCMSTP/G): altern. values or methods;;;;LI(PPM);BE(PPM);B(PPM);F(PPM);NE20(CCMSTP/G);NE22(CCMSTP/G);P(PPM);S(PPM);CL(PPM);AR36(CCMSTP/G);AR40(CCMSTP/G);AR40(MOL/G): altern. values or methods;;;;AR40(PPB);K(PPM);SC(PPM): altern. values or methods;;;;;;TI(PPM);V(PPM): altern. values or methods;;;;CR(PPM): altern. values or methods;;;;MN(PPM);FE(PPM);CO(PPM): altern. values or methods;;;;;;NI(PPM): altern. values or methods;;;;;;CU(PPM): altern. values or methods;;;;ZN(PPM): altern. values or methods;;;;GA(PPM): altern. values or methods;;;;GE(PPM);AS(PPM);KR84(CCMSTP/G);RB(PPM): altern. values or methods;;;;SR(PPM): altern. values or methods;;;;Y(PPM): altern. values or methods;;;;ZR(PPM): altern. values or methods;;;;NB(PPM): altern. values or methods;;;;MO(PPM);RU(PPB);RH(PPB);PD(PPB);IN(PPM);SN(PPM);SB(PPM);XE132(CCMSTP/G);CS(PPM);BA(PPM): altern. values or methods;;;;LA(PPM): altern. values or methods;;;;CE(PPM): altern. values or methods;;;;PR(PPM): altern. values or methods;;;;ND(PPM): altern. values or methods;;;;SM(PPM): altern. values or methods;;;;EU(PPM): altern. values or methods;;;;GD(PPM);TB(PPM): altern. values or methods;;;;DY(PPM);HO(PPM);ER(PPM);TM(PPM);YB(PPM): altern. values or methods;;;;LU(PPM);HF(PPM): altern. values or methods;;;;TA(PPM);W(PPM);RE(PPB): altern. values or methods;;;;RE(PPT);OS(PPB): altern. values or methods;;;;OS(PPT);IR(PPB);PT(PPB);AU(PPB);HG(PPB);TL(PPM);PB(PPM): altern. values or methods;;;;PB210_ACT(DPM/G);TH(PPM): altern. values or methods;;;;TH(PPB);U(PPM): altern. values or methods;;;;U(PPB);CO2(PPM);H2O(PPM);ND143_ND144;ND148_ND144;SM147_ND144;SR87_SR86;RB87_SR86;PB206_PB204: altern. values or methods;;;;PB206_PB207;PB206_PB208;PB207_PB204: altern. values or methods;;;;PB207_PB206;PB208_PB204: altern. values or methods;;;;PB208_PB206;OS187_OS186;OS187_OS188: altern. values or methods;;;;RE187_OS188: altern. values or methods;;;;HF176_HF177;HE3_HE4;HE3_HE4(R/R(A)): altern. values or methods;;;;HE4_HE3: altern. values or methods;;;;;;HE4_HE3(R/R(A)): altern. values or methods;;;;AR38_AR36;AR40_AR36;NE20_NE22;NE21_NE22;XE129_XE132;PB206_U238;PB207_U235;PB210_U238;TH232_U238;U238_PB204;D13C(VS SMOW);D17O(VS VSMOW);D18O(PER MIL);D18O(VS PDB);D18O(VS SMOW);D18O(VS VSMOW);D34S(VS CDT);D44_40CA(VS SRM915A);D56FE(VS IRMM-014);DD(VS SMOW);ALBITE(MOL%);ACMITE(MOL%);ANORTHITE(MOL%);ENSTATITE(MOL%);FAYALITE(MOL%);FORSTERITE(MOL%);FERROSILITE(MOL%);HEMATITE(MOL%);LARNITE(MOL%);ORTHOCLASE(MOL%);PSEUDOBROOKITE(MOL%);TEPHROITE(MOL%);ULVOSPINEL(MOL%);WOLLASTONITE(MOL%);AGE(KA);AGE(MA): altern. values or methods;;;;;;;;AGE_PB207_PB206(MA);AGE_PB207_U235(MA);AGE_PB206_U238(MA);
1990;[6799] BRIGGS R. M. (1990);samp. P35;;NEW ZEALAND / NORTH ISLAND / ALEXANDRA FIELD / PIRONGIA;TRACK 12, NW PIRONGIA;-37.7;174.7;-38.3;175.5;;;OUTCROP;;;SUBAERIAL;VOLCANIC ROCK;ANKARAMITE;;;;;;;;;;MINERAL / COMPONENT (INCL. GROUNDMASS);PYROXENE;;PHENOCRYST;CORE;;PRIMARY;;;;;;;;47.48;0.91;6.45;;;;;;7.99;;23.58;13.08;0.09;;;;;;;;;;0.25;EMP (EPMA);;;;;;;;;;;;;;;;;;;;;;;;;;;;;;;;;;;;;;;;;;;;;;;;;;;;;;;;;;;;;;;;;;;;;;;;;;;;;;;;;;;;;;;;;;;;;;;;;;;;;;;;;;;;;;;;;;;;;;;;;;;;;;;;;;;;;;;;;;;;;;;;;;;;;;;;;;;;;;;;;;;;;;;;;;;;;;;;;;;;;;;;;;;;;;;;;;;;;;;;;;;;;;;;;;;;;;;;;;;;;;;;;;;;;;;;;;;;;;;;;;;;;;;;;;;;;;;;;;;;;;;;;;;;;;;;;;37.89;;;12.99;;;;;;;49.12;;;;;;;;;;;;;
1990;[6799] BRIGGS R. M. (1990);samp. P35;;NEW ZEALAND / NORTH ISLAND / ALEXANDRA FIELD / PIRONGIA;TRACK 12, NW PIRONGIA;-37.7;174.7;-38.3;175.5;;;OUTCROP;;;SUBAERIAL;VOLCANIC ROCK;ANKARAMITE;;;;;;;;;;MINERAL / COMPONENT (INCL. GROUNDMASS);PYROXENE;;PHENOCRYST;RIM;;PRIMARY;;;;;;;;47.95;0.67;5.83;;;;;;8.16;;22.89;13.4;0.09;;;;;;;;;;0.25;EMP (EPMA);;;;;;;;;;;;;;;;;;;;;;;;;;;;;;;;;;;;;;;;;;;;;;;;;;;;;;;;;;;;;;;;;;;;;;;;;;;;;;;;;;;;;;;;;;;;;;;;;;;;;;;;;;;;;;;;;;;;;;;;;;;;;;;;;;;;;;;;;;;;;;;;;;;;;;;;;;;;;;;;;;;;;;;;;;;;;;;;;;;;;;;;;;;;;;;;;;;;;;;;;;;;;;;;;;;;;;;;;;;;;;;;;;;;;;;;;;;;;;;;;;;;;;;;;;;;;;;;;;;;;;;;;;;;;;;;;;38.91;;;13.3;;;;;;;47.79;;;;;;;;;;;;;
1990;[6799] BRIGGS R. M. (1990);samp. U15;;NEW ZEALAND / NORTH ISLAND / ALEXANDRA FIELD / KAKEPUKU;KAKEPUKU QUARRY;-37.7;174.7;-38.3;175.5;;;OUTCROP;;;SUBAERIAL;VOLCANIC ROCK;ANKARAMITE;;;;;;;;;;MINERAL / COMPONENT (INCL. GROUNDMASS);PYROXENE;;PHENOCRYST;CORE;;PRIMARY;;;;;;;;50.54;0.73;5.36;;;;;;7.24;;21.95;13.98;0.11;;;;;;;;;;0.27;EMP (EPMA);;;;;;;;;;;;;;;;;;;;;;;;;;;;;;;;;;;;;;;;;;;;;;;;;;;;;;;;;;;;;;;;;;;;;;;;;;;;;;;;;;;;;;;;;;;;;;;;;;;;;;;;;;;;;;;;;;;;;;;;;;;;;;;;;;;;;;;;;;;;;;;;;;;;;;;;;;;;;;;;;;;;;;;;;;;;;;;;;;;;;;;;;;;;;;;;;;;;;;;;;;;;;;;;;;;;;;;;;;;;;;;;;;;;;;;;;;;;;;;;;;;;;;;;;;;;;;;;;;;;;;;;;;;;;;;;;;41.33;;;12.02;;;;;;;46.65;;;;;;;;;;;;;
1990;[6799] BRIGGS R. M. (1990);samp. U15;;NEW ZEALAND / NORTH ISLAND / ALEXANDRA FIELD / KAKEPUKU;KAKEPUKU QUARRY;-37.7;174.7;-38.3;175.5;;;OUTCROP;;;SUBAERIAL;VOLCANIC ROCK;ANKARAMITE;;;;;;;;;;MINERAL / COMPONENT (INCL. GROUNDMASS);PYROXENE;;PHENOCRYST;RIM;;PRIMARY;;;;;;;;52.38;0.81;1.92;;;;;;10.31;;19.75;13.97;0.32;;;;;;;;;;0.35;EMP (EPMA);;;;;;;;;;;;;;;;;;;;;;;;;;;;;;;;;;;;;;;;;;;;;;;;;;;;;;;;;;;;;;;;;;;;;;;;;;;;;;;;;;;;;;;;;;;;;;;;;;;;;;;;;;;;;;;;;;;;;;;;;;;;;;;;;;;;;;;;;;;;;;;;;;;;;;;;;;;;;;;;;;;;;;;;;;;;;;;;;;;;;;;;;;;;;;;;;;;;;;;;;;;;;;;;;;;;;;;;;;;;;;;;;;;;;;;;;;;;;;;;;;;;;;;;;;;;;;;;;;;;;;;;;;;;;;;;;;41.14;;;17.04;;;;;;;41.82;;;;;;;;;;;;;
1990;[6799] BRIGGS R. M. (1990);samp. U15;;NEW ZEALAND / NORTH ISLAND / ALEXANDRA FIELD / KAKEPUKU;KAKEPUKU QUARRY;-37.7;174.7;-38.3;175.5;;;OUTCROP;;;SUBAERIAL;VOLCANIC ROCK;ANKARAMITE;;;;;;;;;;MINERAL / COMPONENT (INCL. GROUNDMASS);TITANO-MAGNETITE;;PHENOCRYST;;;PRIMARY;;;;;;;;0.13;10.44;4.83;;;;;;75.32;;;3.74;0.37;;;;;;;;;;;;;;;;;;;;;;;;;;;;;;;;;;;;;;;;;;;;;;;;;;;;;;;;;;;;;;;;;;;;;;;;;;;;;;;;;;;;;;;;;;;;;;;;;;;;;;;;;;;;;;;;;;;;;;;;;;;;;;;;;;;;;;;;;;;;;;;;;;;;;;;;;;;;;;;;;;;;;;;;;;;;;;;;;;;;;;;;;;;;;;;;;;;;;;;;;;;;;;;;;;;;;;;;;;;;;;;;;;;;;;;;;;;;;;;;;;;;;;;;;;;;;;;;;;;;;;;;;;;;;;;;;;;;;;;;;;;;;;;;;;;;;;;;;;;;;;;;;;;;
1990;[6799] BRIGGS R. M. (1990);samp. P35;;NEW ZEALAND / NORTH ISLAND / ALEXANDRA FIELD / PIRONGIA;TRACK 12, NW PIRONGIA;-37.7;174.7;-38.3;175.5;;;OUTCROP;;;SUBAERIAL;VOLCANIC ROCK;ANKARAMITE;;;;;;;;;;INCLUSION;;;;;;;MINERAL INCLUSION;;SPINEL;;OLIVINE;FALSE;;0.12;0.43;10.35;51.39;;;;;25.2;;;11.47;;;;;;;;;;;;;;;;;;;;;;;;;;;;;;;;;;;;;;;;;;;;;;;;;;;;;;;;;;;;;;;;;;;;;;;;;;;;;;;;;;;;;;;;;;;;;;;;;;;;;;;;;;;;;;;;;;;;;;;;;;;;;;;;;;;;;;;;;;;;;;;;;;;;;;;;;;;;;;;;;;;;;;;;;;;;;;;;;;;;;;;;;;;;;;;;;;;;;;;;;;;;;;;;;;;;;;;;;;;;;;;;;;;;;;;;;;;;;;;;;;;;;;;;;;;;;;;;;;;;;;;;;;;;;;;;;;;;;;;;;;;;;;;;;;;;;;;;;;;;;;;;;;;;;
1990;[6799] BRIGGS R. M. (1990);samp. P35;;NEW ZEALAND / NORTH ISLAND / ALEXANDRA FIELD / PIRONGIA;TRACK 12, NW PIRONGIA;-37.7;174.7;-38.3;175.5;;;OUTCROP;;;SUBAERIAL;VOLCANIC ROCK;ANKARAMITE;;;;;;;;;;INCLUSION;;;;;;;MINERAL INCLUSION;;SPINEL;;OLIVINE;FALSE;;0.09;0.66;11.61;46.06;;;;;28.19;;;11.24;0.17;;;;;;;;;;;;;;;;;;;;;;;;;;;;;;;;;;;;;;;;;;;;;;;;;;;;;;;;;;;;;;;;;;;;;;;;;;;;;;;;;;;;;;;;;;;;;;;;;;;;;;;;;;;;;;;;;;;;;;;;;;;;;;;;;;;;;;;;;;;;;;;;;;;;;;;;;;;;;;;;;;;;;;;;;;;;;;;;;;;;;;;;;;;;;;;;;;;;;;;;;;;;;;;;;;;;;;;;;;;;;;;;;;;;;;;;;;;;;;;;;;;;;;;;;;;;;;;;;;;;;;;;;;;;;;;;;;;;;;;;;;;;;;;;;;;;;;;;;;;;;;;;;;;;
2004;[6904] AKA F. T. (2004);samp. 266ST036A;;CAMEROON LINE / SAO TOME;BANKS OF RIVER RIO CAUE;0.42;6.58;0.42;6.58;;;OUTCROP;;;SUBAERIAL;VOLCANIC ROCK;ANKARAMITE;;;;;;;;;;MINERAL / COMPONENT (INCL. GROUNDMASS);CLINOPYROXENE;;;;;PRIMARY;;;;;;;;;;;;;;;;;;;;;;;;;;;;;;;;;;;;;;;;;;;;;;;;;;;;;;;;;;;;;;5.1E-08;MS;;;;;;;;;;;;;;;;;;;;;;;;;;;;;;;;;;;;;;;;;;;;;;;;;;;;;;;;;;;;;;;;;;;;;;;;;;;;;;;;;;;;;;;;;;;;;;;;;;;;;;;;;;;;;;;;;;;;;;;;;;;;;;;;;;;;;;;;;;;;;;;;;;;;;;;;;;;;;;;;;;;;;;;;;;;;;;;;;;;;;;;;;;;;;;;;;;;;;;;;;;;;;7.06;MS;;;;;;;;;;;;;;;;;;;;;;;;;;;;;;;;;;;;;;;;;;;;;;;;;;;;;;;;;;;
2004;[6904] AKA F. T. (2004);samp. 266ST036B;;CAMEROON LINE / SAO TOME;BANKS OF RIVER RIO CAUE;0.42;6.58;0.42;6.58;;;OUTCROP;;;SUBAERIAL;VOLCANIC ROCK;ANKARAMITE;;;;;;;;;;MINERAL / COMPONENT (INCL. GROUNDMASS);CLINOPYROXENE;;;;;PRIMARY;;;;;;;;;;;;;;;;;;;;;;;;;;;;;;;;;;;;;;;;;;;;;;;;;;;;;;;;;;;;;;3.4E-08;MS;;;;;;;;;;;;;;;;;;;;;;;;;;;;;;;;;;;;;;;;;;;;;;;;;;;;;;;;;;;;;;;;;;;;;;;;;;;;;;;;;;;;;;;;;;;;;;;;;;;;;;;;;;;;;;;;;;;;;;;;;;;;;;;;;;;;;;;;;;;;;;;;;;;;;;;;;;;;;;;;;;;;;;;;;;;;;;;;;;;;;;;;;;;;;;;;;;;;;;;;;;;;;6.89;MS;;;;;;;;;;;;;;;;;;;;;;;;;;;;;;;;;;;;;;;;;;;;;;;;;;;;;;;;;;;
2004;[7008] LUAIS B. (2004);samp. LGV14;7788;MASCARENE ISLANDS INCL. REUNION / REUNION / PITON DE LA FOURNAISE;RIVIERE LANGEVIN;-21.25;55.66;-21.25;55.66;2060;2060;OUTCROP;;;SUBAERIAL;VOLCANIC ROCK;ANKARAMITE;;;;;;;;;;WHOLE ROCK;;;;;;;;;;;;;;;;;;;;;;;;;;;;;;;;;;;;;;;;;;;;;;;;;;;;;;;;;;;;;;;;;;;;;;;;;;;;;;;;;;;;;;;;;;;;;;;;;;;;;;;;;;;;;;;;;;;;;;;;;;;;;;;;;;;;;;;;;;;;;;;;;;;;;;;;;;;;;;;;;;;;;;;;;;;;;;;;;;;;;;;;;;;;;;;;;;;;;;;;;;;;;;;;;;;;;;;;;;;;;;;;;;;;;;;;;;;;;;;;;;0.512848;;;;;;;;;;;;;;;;;;;;;;;;;;;;;;;;;;;;;;;;;;;;;;;;;;;;;;;;;;;;;;;;;;;;;;;;;;;;;;;;;;;;;;;;;;;;
1986;[7491] GUNDERSON R. P. (1986);samp. BB-1;;MEXICAN VOLCANIC BELTS / TRANS MEXICAN VOLCANIC BELT / CHIHUAHUA / EASTERN CHIHUAHUA VOLCANIC FIELD;BENAVIDES-POZOS AREA, 8 MILES S OF BIG BEND NATIONAL PARK ON MAIN PARK ROAD;29;-104;29;-104;;;OUTCROP;;;SUBAERIAL;VOLCANIC ROCK;ANKARAMITE;;;;;;;;;;WHOLE ROCK;;;;;;;;;;;;;;44.44;1.83;14.16;;;;;1.2;;9.96;12.2;10.99;0.19;;;;;;0.69;XRF;;;3.7;XRF;;;0.65;;;;;;;;;;1.8;;;;;;;;;;;;;;;;;;;;;;;;;;;;;;;;;;;;;;;;;;;;;;297;XRF;;;403;XRF;;;;;;;;;;;153;XRF;;;;;;;;;;;;;;;;;;;;53;XRF;;;1050;XRF;;;30;XRF;;;167;XRF;;;20;XRF;;;;;;;;;;;;465;XRF;;;36;XRF;;;72;XRF;;;;;;;44;XRF;;;;;;;;;;;;;;;;;;;;;;;;;;;;;;;;;;;;;;;;;;;;;;;;;;;;;;;;;;;;;;;;;;;;;;;;;;;;;;;;;;;;;;;;;;;;;;;;;;;;;;;;;;;;;;;;;;;;;;;;;;;;;;;;;;;;;;;;;;;;;;;;;;;;;;;;;;;
1986;[7491] GUNDERSON R. P. (1986);samp. BB-2;;MEXICAN VOLCANIC BELTS / TRANS MEXICAN VOLCANIC BELT / CHIHUAHUA / EASTERN CHIHUAHUA VOLCANIC FIELD;BENAVIDES-POZOS AREA, 8 MILES S OF BIG BEND NATIONAL PARK ON MAIN PARK ROAD;29;-104;29;-104;;;OUTCROP;;;SUBAERIAL;VOLCANIC ROCK;ANKARAMITE;;;;;;;;;;WHOLE ROCK;;;;;;;;;;;;;;44.34;1.84;14.17;;;;;1.19;;9.91;12.3;11.03;0.19;;;;;;1.08;XRF;;;3.29;XRF;;;0.66;;;;;;;;;;2.02;;;;;;;;;;;;;;;;;;;;;;;;;;;;;;;;;;;;;;;;;;;;;;;;;;;;;;;;;;;;;;155;XRF;;;;;;;;;;;;;;;;;;;;26;XRF;;;1092;XRF;;;29;XRF;;;168;XRF;;;19;XRF;;;;;;;;;;;;;;;;;;;;;;;;;;;;;;;;;;;;;;;;;;;;;;;;;;;;;;;;;;;;;;;;;;;;;;;;;;;;;;;;;;;;;;;;;;;;;;;;;;;;;;;;;;;;;;;;;;;;;;;;;;;;;;;;;;;;;;;;;;;;;;;;;;;;;;;;;;;;;;;;;;;;;;;;;;;;;;;;;;;;;;;;
2005;[7521] ICHIYAMA Y.(2005)  [GeoReM [2011] ];samp. 20429-5;;HONSHU ARC / CENTRAL HONSHU ARC / HONSHU;MINO BELT, FUNAFUSEYAMA AREA, HASHIKADANI ROUTE;35.5;136.8;36;137.2;;;OUTCROP;;;SUBAERIAL;VOLCANIC ROCK;ANKARAMITE;;BOULDER;;;JURASSIC;;;;;WHOLE ROCK;;;;;;;;;;;;;;44.72;3.94;11.16;;;;;;8.53;;13.99;7.52;0.1;;;;;;2.27;XRF;;;2.02;XRF;;;0.83;;;;;;;;;;;;;;;;;;;;;;;;;;;;;;;;;;;;;;;;;;;;;;;;;41.2;INAA;;;;;;391;XRF;;;204;INAA;;;;;44.2;INAA;;;;;77;XRF;;;;;35;XRF;;;88;XRF;;;;;;;;;;42;XRF;;;666;XRF;;;41;XRF;;;404;XRF;;;72;XRF;;;;;;;;;;;;3933;INAA;;;46.4;INAA;;;97.7;INAA;;;;;;;;;;;12.4;INAA;;;4;INAA;;;;;;;;;;;;2.4;INAA;;;0.33;9.5;INAA;;;4.2;;;;;;;;;;;;;;;;;2;XRF;;;;6.2;INAA;;;;;;;;;;;;;;;;;;;;;;;;;;;;;;;;;;;;;;;;;;;;;;;;;;;;;;;;;;;;;;;;;;;;;;;;;;;;;;;;;;;;;;;;;;;;;;;;;;;;;;;
2005;[7521] ICHIYAMA Y.(2005)  [GeoReM [2011] ];samp. 21117-4C;;HONSHU ARC / CENTRAL HONSHU ARC / HONSHU;MINO BELT, FUNAFUSEYAMA AREA, HASHIKADANI ROUTE;35.5;136.8;36;137.2;;;OUTCROP;;;SUBAERIAL;VOLCANIC ROCK;ANKARAMITE;;;;;JURASSIC;;;;;WHOLE ROCK;;;;;;;;;;;;;;45.32;4.37;12.84;;;;;;9.96;;10.75;5.13;0.11;;;;;;2.65;XRF;;;3.06;XRF;;;1.14;;;;;;;;;;;;;;;;;;;;;;;;;;;;;;;;;;;;;;;;;;;;;;;;;25.8;INAA;;;;;;417;XRF;;;131;INAA;;;;;32.5;INAA;;;;;53;XRF;;;;;94;XRF;;;107;XRF;;;;;;;;;;54;XRF;;;842;XRF;;;46;XRF;;;433;XRF;;;98;XRF;;;;;;;;;;;;1615;INAA;;;68;INAA;;;136.1;INAA;;;;;;;;;;;14.2;INAA;;;4.7;INAA;;;;;;;;;;;;3.5;INAA;;;0.37;8.3;INAA;;;5.9;;;;;;;;;;;;;;;;;5;XRF;;;;8.7;INAA;;;;;;;;;;;;;;;;;;;;;;;;;;;;;;;;;;;;;;;;;;;;;;;;;;;;;;;;;;;;;;;;;;;;;;;;;;;;;;;;;;;;;;;;;;;;;;;;;;;;;;;
2005;[7521] ICHIYAMA Y.(2005)  [GeoReM [2011] ];samp. 20429-5;;HONSHU ARC / CENTRAL HONSHU ARC / HONSHU;MINO BELT, FUNAFUSEYAMA AREA, HASHIKADANI ROUTE;35.5;136.8;36;137.2;;;OUTCROP;;;SUBAERIAL;VOLCANIC ROCK;ANKARAMITE;;BOULDER;;;JURASSIC;;;;;MINERAL / COMPONENT (INCL. GROUNDMASS);TITAN-AUGITE;;;CORE;;PRIMARY;;;;;;;;49.03;3;5.04;0.09;;;;;5.58;;22.55;14.49;0.17;;;;;;0.02;EMP (EPMA);;;0.44;EMP (EPMA);;;;;;;;;;;;;;;;;;;;;;;;;;;;;;;;;;;;;;;;;;;;;;;;;;;;;;;;;;;;;;;;;;;;;;;;;;;;;;;;;;;;;;;;;;;;;;;;;;;;;;;;;;;;;;;;;;;;;;;;;;;;;;;;;;;;;;;;;;;;;;;;;;;;;;;;;;;;;;;;;;;;;;;;;;;;;;;;;;;;;;;;;;;;;;;;;;;;;;;;;;;;;;;;;;;;;;;;;;;;;;;;;;;;;;;;;;;;;;;;;;;;;;;;;;;;;;;;;;;;;;;;;;;;;;;;;;;;;;;;;;;;;;;;;;;;;;;;;
2005;[7521] ICHIYAMA Y.(2005)  [GeoReM [2011] ];samp. 20429-5;;HONSHU ARC / CENTRAL HONSHU ARC / HONSHU;MINO BELT, FUNAFUSEYAMA AREA, HASHIKADANI ROUTE;35.5;136.8;36;137.2;;;OUTCROP;;;SUBAERIAL;VOLCANIC ROCK;ANKARAMITE;;BOULDER;;;JURASSIC;;;;;MINERAL / COMPONENT (INCL. GROUNDMASS);TITAN-AUGITE;;;RIM;;PRIMARY;;;;;;;;43.39;5.19;9.16;0;;;;;8.39;;21.54;11.72;0.05;;;;;;0.01;EMP (EPMA);;;0.54;EMP (EPMA);;;;;;;;;;;;;;;;;;;;;;;;;;;;;;;;;;;;;;;;;;;;;;;;;;;;;;;;;;;;;;;;;;;;;;;;;;;;;;;;;;;;;;;;;;;;;;;;;;;;;;;;;;;;;;;;;;;;;;;;;;;;;;;;;;;;;;;;;;;;;;;;;;;;;;;;;;;;;;;;;;;;;;;;;;;;;;;;;;;;;;;;;;;;;;;;;;;;;;;;;;;;;;;;;;;;;;;;;;;;;;;;;;;;;;;;;;;;;;;;;;;;;;;;;;;;;;;;;;;;;;;;;;;;;;;;;;;;;;;;;;;;;;;;;;;;;;;;;
2005;[7521] ICHIYAMA Y.(2005)  [GeoReM [2011] ];samp. 20429-5;;HONSHU ARC / CENTRAL HONSHU ARC / HONSHU;MINO BELT, FUNAFUSEYAMA AREA, HASHIKADANI ROUTE;35.5;136.8;36;137.2;;;OUTCROP;;;SUBAERIAL;VOLCANIC ROCK;ANKARAMITE;;BOULDER;;;JURASSIC;;;;;MINERAL / COMPONENT (INCL. GROUNDMASS);KAERSUTITE;;;CORE;;PRIMARY;;;;;;;;39.58;6.44;13.88;0.06;;;;;13.42;;9.99;11.09;0.18;;;;;;0.99;EMP (EPMA);;;2.83;EMP (EPMA);;;;;;;;;;;;;;;;;;;;;;;;;;;;;;;;;;;;;;;;;;;;;;;;;;;;;;;;;;;;;;;;;;;;;;;;;;;;;;;;;;;;;;;;;;;;;;;;;;;;;;;;;;;;;;;;;;;;;;;;;;;;;;;;;;;;;;;;;;;;;;;;;;;;;;;;;;;;;;;;;;;;;;;;;;;;;;;;;;;;;;;;;;;;;;;;;;;;;;;;;;;;;;;;;;;;;;;;;;;;;;;;;;;;;;;;;;;;;;;;;;;;;;;;;;;;;;;;;;;;;;;;;;;;;;;;;;;;;;;;;;;;;;;;;;;;;;;;;
2005;[7521] ICHIYAMA Y.(2005)  [GeoReM [2011] ];samp. 20429-5;;HONSHU ARC / CENTRAL HONSHU ARC / HONSHU;MINO BELT, FUNAFUSEYAMA AREA, HASHIKADANI ROUTE;35.5;136.8;36;137.2;;;OUTCROP;;;SUBAERIAL;VOLCANIC ROCK;ANKARAMITE;;BOULDER;;;JURASSIC;;;;;MINERAL / COMPONENT (INCL. GROUNDMASS);KAERSUTITE;;;RIM;;PRIMARY;;;;;;;;37.15;4.86;15.56;0.06;;;;;19.59;;9.59;5.7;0.27;;;;;;1.12;EMP (EPMA);;;2.85;EMP (EPMA);;;;;;;;;;;;;;;;;;;;;;;;;;;;;;;;;;;;;;;;;;;;;;;;;;;;;;;;;;;;;;;;;;;;;;;;;;;;;;;;;;;;;;;;;;;;;;;;;;;;;;;;;;;;;;;;;;;;;;;;;;;;;;;;;;;;;;;;;;;;;;;;;;;;;;;;;;;;;;;;;;;;;;;;;;;;;;;;;;;;;;;;;;;;;;;;;;;;;;;;;;;;;;;;;;;;;;;;;;;;;;;;;;;;;;;;;;;;;;;;;;;;;;;;;;;;;;;;;;;;;;;;;;;;;;;;;;;;;;;;;;;;;;;;;;;;;;;;;
2004;[7554] HODYCH J. P. (2004);samp. SC-1;;APPALACHIANS / NORTHERN APPALACHIANS / HUMBER ZONE / SKINNER COVE FORMATION;;46.9;-55.4;46.9;-55.4;;;OUTCROP;;;SUBAERIAL;VOLCANIC ROCK;ANKARAMITE;;FLOW;550000000;550000000;PROTEROZOIC;NEO;;;;MINERAL / COMPONENT (INCL. GROUNDMASS);ZIRCON;1-1A;;;;PRIMARY;;;;;;;;;;;;;;;;;;;;;;;;;;;;;;;;;;;;;;;;;;;;;;;;;;;;;;;;;;;;;;;;;;;;;;;;;;;;;;;;;;;;;;;;;;;;;;;;;;;;;;;;;;;;;;;;;;;;;;;;;;;;;;;;;;;;;;;;;;;;;;;;;;;;;;;;;;;;;;;;;;;;;;;;;;;;;;;;;;;;;;;;;;;;;;;;;;;;;;;;;;;;;;;;;;;;;;;;;;;;;;;;;;;;;320;ICPMS_LAM;;;;;;;;;;;;;;;;;;;;;0.0587;;;;;0.1732;;;;;;;;;;;;;;;;;;;;;;;;;;;;;;;0.0889;0.7212;;0.5594;;;;;;;;;;;;;;;;;;;;;;;;;;;;;;;;;;;556;551;549;
2004;[7554] HODYCH J. P. (2004);samp. SC-1;;APPALACHIANS / NORTHERN APPALACHIANS / HUMBER ZONE / SKINNER COVE FORMATION;;46.9;-55.4;46.9;-55.4;;;OUTCROP;;;SUBAERIAL;VOLCANIC ROCK;ANKARAMITE;;FLOW;550000000;550000000;PROTEROZOIC;NEO;;;;MINERAL / COMPONENT (INCL. GROUNDMASS);ZIRCON;1-1B;;;;PRIMARY;;;;;;;;;;;;;;;;;;;;;;;;;;;;;;;;;;;;;;;;;;;;;;;;;;;;;;;;;;;;;;;;;;;;;;;;;;;;;;;;;;;;;;;;;;;;;;;;;;;;;;;;;;;;;;;;;;;;;;;;;;;;;;;;;;;;;;;;;;;;;;;;;;;;;;;;;;;;;;;;;;;;;;;;;;;;;;;;;;;;;;;;;;;;;;;;;;;;;;;;;;;;;;;;;;;;;;;;;;;;;;;;;;;;;277;ICPMS_LAM;;;;;;;;;;;;;;;;;;;;;0.0609;;;;;0.1737;;;;;;;;;;;;;;;;;;;;;;;;;;;;;;;0.0855;0.7251;;0.561;;;;;;;;;;;;;;;;;;;;;;;;;;;;;;;;;;;637;554;529;
2004;[7554] HODYCH J. P. (2004);samp. SC-1;;APPALACHIANS / NORTHERN APPALACHIANS / HUMBER ZONE / SKINNER COVE FORMATION;;46.9;-55.4;46.9;-55.4;;;OUTCROP;;;SUBAERIAL;VOLCANIC ROCK;ANKARAMITE;;FLOW;550000000;550000000;PROTEROZOIC;NEO;;;;MINERAL / COMPONENT (INCL. GROUNDMASS);ZIRCON;1-2A;;;;PRIMARY;;;;;;;;;;;;;;;;;;;;;;;;;;;;;;;;;;;;;;;;;;;;;;;;;;;;;;;;;;;;;;;;;;;;;;;;;;;;;;;;;;;;;;;;;;;;;;;;;;;;;;;;;;;;;;;;;;;;;;;;;;;;;;;;;;;;;;;;;;;;;;;;;;;;;;;;;;;;;;;;;;;;;;;;;;;;;;;;;;;;;;;;;;;;;;;;;;;;;;;;;;;;;;;;;;;;;;;;;;;;;;;;;;;;;255;ICPMS_LAM;;;;;;;;;;;;;;;;;;;;;0.0587;;;;;0.1347;;;;;;;;;;;;;;;;;;;;;;;;;;;;;;;0.0895;0.7385;;0.435;;;;;;;;;;;;;;;;;;;;;;;;;;;;;;;;;;;556;562;553;
2004;[7554] HODYCH J. P. (2004);samp. SC-1;;APPALACHIANS / NORTHERN APPALACHIANS / HUMBER ZONE / SKINNER COVE FORMATION;;46.9;-55.4;46.9;-55.4;;;OUTCROP;;;SUBAERIAL;VOLCANIC ROCK;ANKARAMITE;;FLOW;550000000;550000000;PROTEROZOIC;NEO;;;;MINERAL / COMPONENT (INCL. GROUNDMASS);ZIRCON;1-2B;;;;PRIMARY;;;;;;;;;;;;;;;;;;;;;;;;;;;;;;;;;;;;;;;;;;;;;;;;;;;;;;;;;;;;;;;;;;;;;;;;;;;;;;;;;;;;;;;;;;;;;;;;;;;;;;;;;;;;;;;;;;;;;;;;;;;;;;;;;;;;;;;;;;;;;;;;;;;;;;;;;;;;;;;;;;;;;;;;;;;;;;;;;;;;;;;;;;;;;;;;;;;;;;;;;;;;;;;;;;;;;;;;;;;;;;;;;;;;;537;ICPMS_LAM;;;;;;;;;;;;;;;;;;;;;0.0593;;;;;0.2475;;;;;;;;;;;;;;;;;;;;;;;;;;;;;;;0.0897;0.7399;;0.7994;;;;;;;;;;;;;;;;;;;;;;;;;;;;;;;;;;;579;562;554;
2004;[7554] HODYCH J. P. (2004);samp. SC-1;;APPALACHIANS / NORTHERN APPALACHIANS / HUMBER ZONE / SKINNER COVE FORMATION;;46.9;-55.4;46.9;-55.4;;;OUTCROP;;;SUBAERIAL;VOLCANIC ROCK;ANKARAMITE;;FLOW;550000000;550000000;PROTEROZOIC;NEO;;;;MINERAL / COMPONENT (INCL. GROUNDMASS);ZIRCON;1-3;;;;PRIMARY;;;;;;;;;;;;;;;;;;;;;;;;;;;;;;;;;;;;;;;;;;;;;;;;;;;;;;;;;;;;;;;;;;;;;;;;;;;;;;;;;;;;;;;;;;;;;;;;;;;;;;;;;;;;;;;;;;;;;;;;;;;;;;;;;;;;;;;;;;;;;;;;;;;;;;;;;;;;;;;;;;;;;;;;;;;;;;;;;;;;;;;;;;;;;;;;;;;;;;;;;;;;;;;;;;;;;;;;;;;;;;;;;;;;;101;ICPMS_LAM;;;;;;;;;;;;;;;;;;;;;0.0596;;;;;0.0612;;;;;;;;;;;;;;;;;;;;;;;;;;;;;;;0.0877;0.7292;;0.1976;;;;;;;;;;;;;;;;;;;;;;;;;;;;;;;;;;;589;556;542;
2004;[7554] HODYCH J. P. (2004);samp. SC-1;;APPALACHIANS / NORTHERN APPALACHIANS / HUMBER ZONE / SKINNER COVE FORMATION;;46.9;-55.4;46.9;-55.4;;;OUTCROP;;;SUBAERIAL;VOLCANIC ROCK;ANKARAMITE;;FLOW;550000000;550000000;PROTEROZOIC;NEO;;;;MINERAL / COMPONENT (INCL. GROUNDMASS);ZIRCON;1-4A;;;;PRIMARY;;;;;;;;;;;;;;;;;;;;;;;;;;;;;;;;;;;;;;;;;;;;;;;;;;;;;;;;;;;;;;;;;;;;;;;;;;;;;;;;;;;;;;;;;;;;;;;;;;;;;;;;;;;;;;;;;;;;;;;;;;;;;;;;;;;;;;;;;;;;;;;;;;;;;;;;;;;;;;;;;;;;;;;;;;;;;;;;;;;;;;;;;;;;;;;;;;;;;;;;;;;;;;;;;;;;;;;;;;;;;;;;;;;;;65;ICPMS_LAM;;;;;;;;;;;;;;;;;;;;;0.0683;;;;;0.0653;;;;;;;;;;;;;;;;;;;;;;;;;;;;;;;0.078;0.7869;;0.211;;;;;;;;;;;;;;;;;;;;;;;;;;;;;;;;;;;877;589;484;