Year;CITATION;SAMPLE NAME;UNIQUE_ID;LOCATION;LOCATION COMMENT;LATITUDE (MIN.);LONGITUDE (MIN.);LATITUDE (MAX.);LONGITUDE (MAX.);ELEVATION (MIN.);ELEVATION (MAX.);SAMPLING TECHNIQUE;DRILLING DEPTH (MIN.);DRILLING DEPTH (MAX.);LAND/SEA (SAMPLING);ROCK TYPE;ROCK NAME;ROCK TEXTURE;SAMPLE COMMENT;AGE (MIN.);AGE (MAX.);GEOLOGICAL AGE;GEOLOGICAL AGE PREFIX;ERUPTION YEAR;ALTERATION;ALTERATION TYPE;TYPE OF MATERIAL;MINERAL / COMPONENT;SPOT (MINERAL);CRYSTAL;RIM / CORE (MINERAL GRAINS);GRAIN SIZE;PRIMARY/SECONDARY;INCLUSION TYPE;SPOT (INCLUSION);MINERAL (INCLUSION);RIM / CORE (INCLUSION);HOSTMINERAL (INCLUSION);HEATING;HEATING TEMPERATURE (?C);SIO2(WT%);TIO2(WT%);AL2O3(WT%);CR2O3(WT%);V2O3(WT%);V2O5(WT%);FE2O3T(WT%);FE2O3(WT%);FEOT(WT%);FEO(WT%);CAO(WT%);MGO(WT%);MNO(WT%);BAO(WT%);SRO(WT%);NIO(WT%);ZNO(WT%);COO(WT%);K2O(WT%);;;;NA2O(WT%);;;;P2O5(WT%);H2O(WT%);H2OP(WT%);H2OM(WT%);CO2(WT%);F(WT%);CL(WT%);CL2(WT%);SO3(WT%);S(WT%);LOI(WT%);O(WT%);SI(WT%);AL(WT%);TI(WT%);FE(WT%);MG(WT%);MN(WT%);CA(WT%);K(WT%): altern. values or methods;;;;NA(WT%);CR(WT%);NI(WT%);HE(CCMSTP/G);HE3(CCMSTP/G);HE4(CCMSTP/G): altern. values or methods;;;;LI(PPM);BE(PPM);B(PPM);F(PPM);NE20(CCMSTP/G);NE22(CCMSTP/G);P(PPM);S(PPM);CL(PPM);AR36(CCMSTP/G);AR40(CCMSTP/G);AR40(MOL/G): altern. values or methods;;;;AR40(PPB);K(PPM);SC(PPM): altern. values or methods;;;;;;TI(PPM);V(PPM): altern. values or methods;;;;CR(PPM): altern. values or methods;;;;MN(PPM);FE(PPM);CO(PPM): altern. values or methods;;;;;;NI(PPM): altern. values or methods;;;;;;CU(PPM): altern. values or methods;;;;ZN(PPM): altern. values or methods;;;;GA(PPM): altern. values or methods;;;;GE(PPM);AS(PPM);KR84(CCMSTP/G);RB(PPM): altern. values or methods;;;;SR(PPM): altern. values or methods;;;;Y(PPM): altern. values or methods;;;;ZR(PPM): altern. values or methods;;;;NB(PPM): altern. values or methods;;;;MO(PPM);RU(PPB);RH(PPB);PD(PPB);IN(PPM);SN(PPM);SB(PPM);XE132(CCMSTP/G);CS(PPM);BA(PPM): altern. values or methods;;;;LA(PPM): altern. values or methods;;;;CE(PPM): altern. values or methods;;;;PR(PPM): altern. values or methods;;;;ND(PPM): altern. values or methods;;;;SM(PPM): altern. values or methods;;;;EU(PPM): altern. values or methods;;;;GD(PPM);TB(PPM): altern. values or methods;;;;DY(PPM);HO(PPM);ER(PPM);TM(PPM);YB(PPM): altern. values or methods;;;;LU(PPM);HF(PPM): altern. values or methods;;;;TA(PPM);W(PPM);RE(PPB): altern. values or methods;;;;RE(PPT);OS(PPB): altern. values or methods;;;;OS(PPT);IR(PPB);PT(PPB);AU(PPB);HG(PPB);TL(PPM);PB(PPM): altern. values or methods;;;;PB210_ACT(DPM/G);TH(PPM): altern. values or methods;;;;TH(PPB);U(PPM): altern. values or methods;;;;U(PPB);CO2(PPM);H2O(PPM);ND143_ND144;ND148_ND144;SM147_ND144;SR87_SR86;RB87_SR86;PB206_PB204: altern. values or methods;;;;PB206_PB207;PB206_PB208;PB207_PB204: altern. values or methods;;;;PB207_PB206;PB208_PB204: altern. values or methods;;;;PB208_PB206;OS187_OS186;OS187_OS188: altern. values or methods;;;;RE187_OS188: altern. values or methods;;;;HF176_HF177;HE3_HE4;HE3_HE4(R/R(A)): altern. values or methods;;;;HE4_HE3: altern. values or methods;;;;;;HE4_HE3(R/R(A)): altern. values or methods;;;;AR38_AR36;AR40_AR36;NE20_NE22;NE21_NE22;XE129_XE132;PB206_U238;PB207_U235;PB210_U238;TH232_U238;U238_PB204;D13C(VS SMOW);D17O(VS VSMOW);D18O(PER MIL);D18O(VS PDB);D18O(VS SMOW);D18O(VS VSMOW);D34S(VS CDT);D44_40CA(VS SRM915A);D56FE(VS IRMM-014);DD(VS SMOW);ALBITE(MOL%);ACMITE(MOL%);ANORTHITE(MOL%);ENSTATITE(MOL%);FAYALITE(MOL%);FORSTERITE(MOL%);FERROSILITE(MOL%);HEMATITE(MOL%);LARNITE(MOL%);ORTHOCLASE(MOL%);PSEUDOBROOKITE(MOL%);TEPHROITE(MOL%);ULVOSPINEL(MOL%);WOLLASTONITE(MOL%);AGE(KA);AGE(MA): altern. values or methods;;;;;;;;AGE_PB207_PB206(MA);AGE_PB207_U235(MA);AGE_PB206_U238(MA);
1970;[970] GUNN B. M. (1970);samp. CE0074;;CROZET ISLANDS / ILE DE L^EST;PIC SANS NOM, BAY OF ABUNDANCE;-46.5;52.15;-46.5;52.15;;;OUTCROP;;;SUBAERIAL;VOLCANIC ROCK;ANKARAMITE;;;;;;;;;;WHOLE ROCK;;;;;;;;;;;;;;45.93;2.586;10.95;;;;13.59;;;;12.67;10.73;0.173;;;;;;0.96;XRF;;;2;AAS;;;0.41;;;;;;;;;;;;;;;;;;;;;;;;;;;;;;;;;;;;;;;;;;;;;;;;;;;;;;;;;;;;288.2;XRF;;;;;;;;;;;211.6;XRF;;;;;128.6;XRF;;;;;;;;;;;;;;21.5;XRF;;;418.6;XRF;;;;;;;;;;;;;;;;;;;;;;;;217.6;XRF;;;;;;;;;;;;;;;;;;;;;;;;;;;;;;;;;;;;;;;;;;;;;;;;;;;;;;;;;;;;;;5.9;XRF;;;;3.5;XRF;;;;;;;;;;;;;;;;;;;;;;;;;;;;;;;;;;;;;;;;;;;;;;;;;;;;;;;;;;;;;;;;;;;;;;;;;;;;;;;;;;;;;;;;;;;;;;;;;;;;;;;
1970;[970] GUNN B. M. (1970);samp. CE0081;;CROZET ISLANDS / ILE DE L^EST;PIC SANS NOM, BAY OF ABUNDANCE;-46.5;52.15;-46.5;52.15;;;OUTCROP;;;SUBAERIAL;VOLCANIC ROCK;ANKARAMITE;;;;;;;;;;WHOLE ROCK;;;;;;;;;;;;;;45.22;1.933;8.04;;;;12.3;;;;11.64;18.4;0.158;;;;;;0.59;XRF;;;1.46;AAS;;;0.25;;;;;;;;;;;;;;;;;;;;;;;;;;;;;;;;;;;;;;;;;;;;;;;;;;;;;;;;;;;;964.4;XRF;;;;;;;;;;;502.4;XRF;;;;;87.5;XRF;;;;;;;;;;;;;;16.3;XRF;;;279.9;XRF;;;;;;;;;;;;;;;;;;;;;;;;148.6;XRF;;;;;;;;;;;;;;;;;;;;;;;;;;;;;;;;;;;;;;;;;;;;;;;;;;;;;;;;;;;;;;3.4;XRF;;;;1.3;XRF;;;;;;;;;;;;;;;;;;;;;;;;;;;;;;;;;;;;;;;;;;;;;;;;;;;;;;;;;;;;;;;;;;;;;;;;;;;;;;;;;;;;;;;;;;;;;;;;;;;;;;;
1970;[970] GUNN B. M. (1970);samp. CE0094;;CROZET ISLANDS / ILE DE L^EST;PIC SANS NOM, BAY OF ABUNDANCE;-46.5;52.15;-46.5;52.15;;;OUTCROP;;;SUBAERIAL;VOLCANIC ROCK;ANKARAMITE;;;;;;;;;;WHOLE ROCK;;;;;;;;;;;;;;44.82;2.505;10.37;;;;13.1;;;;12.15;13.69;0.168;;;;;;0.95;XRF;;;1.92;AAS;;;0.34;;;;;;;;;;;;;;;;;;;;;;;;;;;;;;;;;;;;;;;;;;;;;;;;;;;;;;;;;;;;627.2;XRF;;;;;;;;;;;331.7;XRF;;;;;98.7;XRF;;;;;;;;;;;;;;22.6;XRF;;;371.5;XRF;;;;;;;;;;;;;;;;;;;;;;;;201;XRF;;;;;;;;;;;;;;;;;;;;;;;;;;;;;;;;;;;;;;;;;;;;;;;;;;;;;;;;;;;;;;3.8;XRF;;;;2.6;XRF;;;;;;;;;;;;;;;;;;;;;;;;;;;;;;;;;;;;;;;;;;;;;;;;;;;;;;;;;;;;;;;;;;;;;;;;;;;;;;;;;;;;;;;;;;;;;;;;;;;;;;;
1970;[970] GUNN B. M. (1970);samp. CE0110;;CROZET ISLANDS / ILE DE L^EST;EAST OF BAIE DU NAUFRAGE;-46.5;52.15;-46.5;52.15;;;OUTCROP;;;SUBAERIAL;VOLCANIC ROCK;ANKARAMITE;;;;;;;;;;WHOLE ROCK;;;;;;;;;;;;;;43.7;3.563;14.3;;;;13.76;;;;11.67;8.24;0.173;;;;;;1.42;XRF;;;2.6;AAS;;;0.57;;;;;;;;;;;;;;;;;;;;;;;;;;;;;;;;;;;;;;;;;;;;;;;;;;;;;;;;;;;;182.8;XRF;;;;;;;;;;;131.7;XRF;;;;;83;XRF;;;;;;;;;;;;;;37.5;XRF;;;669;XRF;;;;;;;;;;;;;;;;;;;;;;;;325.6;XRF;;;;;;;;;;;;;;;;;;;;;;;;;;;;;;;;;;;;;;;;;;;;;;;;;;;;;;;;;;;;;;8.5;XRF;;;;2;XRF;;;;;;;;;;;;;;;;;;;;;;;;;;;;;;;;;;;;;;;;;;;;;;;;;;;;;;;;;;;;;;;;;;;;;;;;;;;;;;;;;;;;;;;;;;;;;;;;;;;;;;;
1970;[970] GUNN B. M. (1970);samp. CE0130;;CROZET ISLANDS / ILE DE L^EST;EAST OF BAIE DU NAUFRAGE;-46.5;52.15;-46.5;52.15;;;OUTCROP;;;SUBAERIAL;VOLCANIC ROCK;ANKARAMITE;;;;;;;;;;WHOLE ROCK;;;;;;;;;;;;;;45.35;2.585;11.16;;;;12.72;;;;11.04;13.52;0.161;;;;;;1.01;XRF;;;2.1;AAS;;;0.36;;;;;;;;;;;;;;;;;;;;;;;;;;;;;;;;;;;;;;;;;;;;;;;;;;;;;;;;;;;;646.4;XRF;;;;;;;;;;;345.7;XRF;;;;;76.9;XRF;;;;;;;;;;;;;;23;XRF;;;444.4;XRF;;;;;;;;;;;;;;;;;;;;;;;;223.7;XRF;;;;;;;;;;;;;;;;;;;;;;;;;;;;;;;;;;;;;;;;;;;;;;;;;;;;;;;;;;;;;;8.8;XRF;;;;2.1;XRF;;;;;;;;;;;;;;;;;;;;;;;;;;;;;;;;;;;;;;;;;;;;;;;;;;;;;;;;;;;;;;;;;;;;;;;;;;;;;;;;;;;;;;;;;;;;;;;;;;;;;;;
1970;[970] GUNN B. M. (1970);samp. CE0151;;CROZET ISLANDS / ILE DE L^EST;EAST OF BAIE DU NAUFRAGE;-46.5;52.15;-46.5;52.15;;;OUTCROP;;;SUBAERIAL;VOLCANIC ROCK;ANKARAMITE;;;;;;;;;;WHOLE ROCK;;;;;;;;;;;;;;45.53;2.46;11.51;;;;12.53;;;;11.26;13.1;0.159;;;;;;0.87;XRF;;;2.21;AAS;;;0.36;;;;;;;;;;;;;;;;;;;;;;;;;;;;;;;;;;;;;;;;;;;;;;;;;;;;;;;;;;;;620.7;XRF;;;;;;;;;;;343.7;XRF;;;;;94.2;XRF;;;;;;;;;;;;;;22.5;XRF;;;423;XRF;;;;;;;;;;;;;;;;;;;;;;;;218.1;XRF;;;;;;;;;;;;;;;;;;;;;;;;;;;;;;;;;;;;;;;;;;;;;;;;;;;;;;;;;;;;;;5.6;XRF;;;;0.6;XRF;;;;;;;;;;;;;;;;;;;;;;;;;;;;;;;;;;;;;;;;;;;;;;;;;;;;;;;;;;;;;;;;;;;;;;;;;;;;;;;;;;;;;;;;;;;;;;;;;;;;;;;
1970;[970] GUNN B. M. (1970);samp. CE0164;;CROZET ISLANDS / ILE DE L^EST;EAST OF BAIE DU NAUFRAGE;-46.5;52.15;-46.5;52.15;;;OUTCROP;;;SUBAERIAL;VOLCANIC ROCK;ANKARAMITE;;;;;;;;;;WHOLE ROCK;;;;;;;;;;;;;;45.67;2.363;11.01;;;;12.35;;;;11.46;13.61;0.16;;;;;;0.95;XRF;;;2.12;AAS;;;0.32;;;;;;;;;;;;;;;;;;;;;;;;;;;;;;;;;;;;;;;;;;;;;;;;;;;;;;;;;;;;763.3;XRF;;;;;;;;;;;392.4;XRF;;;;;86.4;XRF;;;;;;;;;;;;;;21.8;XRF;;;403.6;XRF;;;;;;;;;;;;;;;;;;;;;;;;207.7;XRF;;;;;;;;;;;;;;;;;;;;;;;;;;;;;;;;;;;;;;;;;;;;;;;;;;;;;;;;;;;;;;5.8;XRF;;;;1.5;XRF;;;;;;;;;;;;;;;;;;;;;;;;;;;;;;;;;;;;;;;;;;;;;;;;;;;;;;;;;;;;;;;;;;;;;;;;;;;;;;;;;;;;;;;;;;;;;;;;;;;;;;;
1970;[970] GUNN B. M. (1970);samp. CE0181;;CROZET ISLANDS / ILE DE L^EST;EAST OF BAIE DU NAUFRAGE;-46.5;52.15;-46.5;52.15;;;OUTCROP;;;SUBAERIAL;VOLCANIC ROCK;ANKARAMITE;;;;;;;;;;WHOLE ROCK;;;;;;;;;;;;;;43.29;2.182;9.41;;;;13.03;;;;13.35;15.73;0.172;;;;;;0.89;XRF;;;1.68;AAS;;;0.27;;;;;;;;;;;;;;;;;;;;;;;;;;;;;;;;;;;;;;;;;;;;;;;;;;;;;;;;;;;;863.6;XRF;;;;;;;;;;;462.4;XRF;;;;;81.9;XRF;;;;;;;;;;;;;;18.4;XRF;;;346.6;XRF;;;;;;;;;;;;;;;;;;;;;;;;169.4;XRF;;;;;;;;;;;;;;;;;;;;;;;;;;;;;;;;;;;;;;;;;;;;;;;;;;;;;;;;;;;;;;4.6;XRF;;;;3.3;XRF;;;;;;;;;;;;;;;;;;;;;;;;;;;;;;;;;;;;;;;;;;;;;;;;;;;;;;;;;;;;;;;;;;;;;;;;;;;;;;;;;;;;;;;;;;;;;;;;;;;;;;;
1970;[970] GUNN B. M. (1970);samp. CE0253;;CROZET ISLANDS / ILE DE L^EST;EAST OF BAIE DU NAUFRAGE;-46.5;52.15;-46.5;52.15;;;OUTCROP;;;SUBAERIAL;VOLCANIC ROCK;ANKARAMITE;GLOMEROPORPHYRITIC;;;;;;;;;WHOLE ROCK;;;;;;;;;;;;;;47.02;2.796;12.8;;;;12.55;;;;12.11;8.71;0.161;;;;;;1.03;XRF;;;2.39;AAS;;;0.43;;;;;;;;;;;;;;;;;;;;;;;;;;;;;;;;;;;;;;;;;;;;;;;;;;;;;;;;;;;;289.8;XRF;;;;;;;;;;;162.6;XRF;;;;;104.4;XRF;;;;;;;;;;;;;;25.4;XRF;;;527.7;XRF;;;;;;;;;;;;;;;;;;;;;;;;223.4;XRF;;;;;;;;;;;;;;;;;;;;;;;;;;;;;;;;;;;;;;;;;;;;;;;;;;;;;;;;;;;;;;10.7;XRF;;;;2.4;XRF;;;;;;;;;;;;;;;;;;;;;;;;;;;;;;;;;;;;;;;;;;;;;;;;;;;;;;;;;;;;;;;;;;;;;;;;;;;;;;;;;;;;;;;;;;;;;;;;;;;;;;;
1970;[970] GUNN B. M. (1970);samp. CE0272;;CROZET ISLANDS / ILE DE L^EST;;-46.5;52.15;-46.5;52.15;;;OUTCROP;;;SUBAERIAL;VOLCANIC ROCK;ANKARAMITE;;;;;;;;;;WHOLE ROCK;;;;;;;;;;;;;;46.96;2.66;11.48;;;;12.21;;;;13.46;9.56;0.16;;;;;;0.98;XRF;;;2.12;AAS;;;0.42;;;;;;;;;;;;;;;;;;;;;;;;;;;;;;;;;;;;;;;;;;;;;;;;;;;;;;;;;;;;376.8;XRF;;;;;;;;;;;133.3;XRF;;;;;111.9;XRF;;;;;;;;;;;;;;23.2;XRF;;;419.8;XRF;;;;;;;;;;;;;;;;;;;;;;;;202.5;XRF;;;;;;;;;;;;;;;;;;;;;;;;;;;;;;;;;;;;;;;;;;;;;;;;;;;;;;;;;;;;;;4.9;XRF;;;;0;XRF;;;;;;;;;;;;;;;;;;;;;;;;;;;;;;;;;;;;;;;;;;;;;;;;;;;;;;;;;;;;;;;;;;;;;;;;;;;;;;;;;;;;;;;;;;;;;;;;;;;;;;;
1970;[970] GUNN B. M. (1970);samp. CE0294;;CROZET ISLANDS / ILE DE L^EST;;-46.5;52.15;-46.5;52.15;;;OUTCROP;;;SUBAERIAL;VOLCANIC ROCK;ANKARAMITE;;;;;;;;;;WHOLE ROCK;;;;;;;;;;;;;;45.8;2.605;12.36;;;;12.91;;;;11.06;11.35;0.159;;;;;;1.06;XRF;;;2.3;AAS;;;0.41;;;;;;;;;;;;;;;;;;;;;;;;;;;;;;;;;;;;;;;;;;;;;;;;;;;;;;;;;;;;446.8;XRF;;;;;;;;;;;279;XRF;;;;;60.5;XRF;;;;;;;;;;;;;;24.8;XRF;;;437;XRF;;;;;;;;;;;;;;;;;;;;;;;;220.4;XRF;;;;;;;;;;;;;;;;;;;;;;;;;;;;;;;;;;;;;;;;;;;;;;;;;;;;;;;;;;;;;;4.3;XRF;;;;1;XRF;;;;;;;;;;;;;;;;;;;;;;;;;;;;;;;;;;;;;;;;;;;;;;;;;;;;;;;;;;;;;;;;;;;;;;;;;;;;;;;;;;;;;;;;;;;;;;;;;;;;;;;
1970;[970] GUNN B. M. (1970);samp. CE0303;;CROZET ISLANDS / ILE DE L^EST;;-46.5;52.15;-46.5;52.15;;;OUTCROP;;;SUBAERIAL;VOLCANIC ROCK;ANKARAMITE;;;;;;;;;;WHOLE ROCK;;;;;;;;;;;;;;46.19;2.564;11.88;;;;12.49;;;;11.4;11.67;0.161;;;;;;1.08;XRF;;;2.19;AAS;;;0.37;;;;;;;;;;;;;;;;;;;;;;;;;;;;;;;;;;;;;;;;;;;;;;;;;;;;;;;;;;;;494.3;XRF;;;;;;;;;;;296.6;XRF;;;;;74;XRF;;;;;;;;;;;;;;26.4;XRF;;;461.1;XRF;;;;;;;;;;;;;;;;;;;;;;;;222.7;XRF;;;;;;;;;;;;;;;;;;;;;;;;;;;;;;;;;;;;;;;;;;;;;;;;;;;;;;;;;;;;;;6.6;XRF;;;;4.6;XRF;;;;;;;;;;;;;;;;;;;;;;;;;;;;;;;;;;;;;;;;;;;;;;;;;;;;;;;;;;;;;;;;;;;;;;;;;;;;;;;;;;;;;;;;;;;;;;;;;;;;;;;
1970;[970] GUNN B. M. (1970);samp. CE0313;;CROZET ISLANDS / ILE DE L^EST;EAST OF BAIE DU NAUFRAGE;-46.5;52.15;-46.5;52.15;;;OUTCROP;;;SUBAERIAL;VOLCANIC ROCK;ANKARAMITE;;;;;;;;;;WHOLE ROCK;;;;;;;;;;;;;;46.75;2.614;12.27;;;;12.26;;;;11.15;10.81;0.168;;;;;;1.18;XRF;;;2.38;AAS;;;0.41;;;;;;;;;;;;;;;;;;;;;;;;;;;;;;;;;;;;;;;;;;;;;;;;;;;;;;;;;;;;437.3;XRF;;;;;;;;;;;271.8;XRF;;;;;85.5;XRF;;;;;;;;;;;;;;30.1;XRF;;;474.1;XRF;;;;;;;;;;;;;;;;;;;;;;;;239.2;XRF;;;;;;;;;;;;;;;;;;;;;;;;;;;;;;;;;;;;;;;;;;;;;;;;;;;;;;;;;;;;;;7.9;XRF;;;;1.4;XRF;;;;;;;;;;;;;;;;;;;;;;;;;;;;;;;;;;;;;;;;;;;;;;;;;;;;;;;;;;;;;;;;;;;;;;;;;;;;;;;;;;;;;;;;;;;;;;;;;;;;;;;
1970;[970] GUNN B. M. (1970);samp. CE0330;;CROZET ISLANDS / ILE DE L^EST;EAST OF BAIE DU NAUFRAGE;-46.5;52.15;-46.5;52.15;;;OUTCROP;;;SUBAERIAL;VOLCANIC ROCK;ANKARAMITE;;;;;;;;;;WHOLE ROCK;;;;;;;;;;;;;;46.73;2.194;10.76;;;;12.52;;;;10.79;13.62;0.165;;;;;;0.9;XRF;;;2;AAS;;;0.33;;;;;;;;;;;;;;;;;;;;;;;;;;;;;;;;;;;;;;;;;;;;;;;;;;;;;;;;;;;;628;XRF;;;;;;;;;;;334.9;XRF;;;;;58.8;XRF;;;;;;;;;;;;;;20.9;XRF;;;369.1;XRF;;;;;;;;;;;;;;;;;;;;;;;;186.9;XRF;;;;;;;;;;;;;;;;;;;;;;;;;;;;;;;;;;;;;;;;;;;;;;;;;;;;;;;;;;;;;;6;XRF;;;;2.1;XRF;;;;;;;;;;;;;;;;;;;;;;;;;;;;;;;;;;;;;;;;;;;;;;;;;;;;;;;;;;;;;;;;;;;;;;;;;;;;;;;;;;;;;;;;;;;;;;;;;;;;;;;
1970;[970] GUNN B. M. (1970);samp. CE0333;;CROZET ISLANDS / ILE DE L^EST;EAST OF BAIE DU NAUFRAGE;-46.5;52.15;-46.5;52.15;;;OUTCROP;;;SUBAERIAL;VOLCANIC ROCK;ANKARAMITE;;;;;;;;;;WHOLE ROCK;;;;;;;;;;;;;;46.99;2.195;10.69;;;;12.24;;;;11;13.4;0.162;;;;;;0.88;XRF;;;2.12;AAS;;;0.33;;;;;;;;;;;;;;;;;;;;;;;;;;;;;;;;;;;;;;;;;;;;;;;;;;;;;;;;;;;;660.3;XRF;;;;;;;;;;;312.6;XRF;;;;;61.3;XRF;;;;;;;;;;;;;;21.8;XRF;;;375.3;XRF;;;;;;;;;;;;;;;;;;;;;;;;189.2;XRF;;;;;;;;;;;;;;;;;;;;;;;;;;;;;;;;;;;;;;;;;;;;;;;;;;;;;;;;;;;;;;6.9;XRF;;;;3.8;XRF;;;;;;;;;;;;;;;;;;;;;;;;;;;;;;;;;;;;;;;;;;;;;;;;;;;;;;;;;;;;;;;;;;;;;;;;;;;;;;;;;;;;;;;;;;;;;;;;;;;;;;;
1970;[970] GUNN B. M. (1970);samp. CE0354;;CROZET ISLANDS / ILE DE L^EST;EAST OF BAIE DU NAUFRAGE;-46.5;52.15;-46.5;52.15;;;OUTCROP;;;SUBAERIAL;VOLCANIC ROCK;ANKARAMITE;;;;;;;;;;WHOLE ROCK;;;;;;;;;;;;;;46.21;3.099;13.85;;;;13.08;;;;11.09;7.98;0.175;;;;;;1.35;XRF;;;2.67;AAS;;;0.5;;;;;;;;;;;;;;;;;;;;;;;;;;;;;;;;;;;;;;;;;;;;;;;;;;;;;;;;;;;;219.9;XRF;;;;;;;;;;;147;XRF;;;;;75.5;XRF;;;;;;;;;;;;;;34.2;XRF;;;557;XRF;;;;;;;;;;;;;;;;;;;;;;;;258.2;XRF;;;;;;;;;;;;;;;;;;;;;;;;;;;;;;;;;;;;;;;;;;;;;;;;;;;;;;;;;;;;;;7.2;XRF;;;;3.2;XRF;;;;;;;;;;;;;;;;;;;;;;;;;;;;;;;;;;;;;;;;;;;;;;;;;;;;;;;;;;;;;;;;;;;;;;;;;;;;;;;;;;;;;;;;;;;;;;;;;;;;;;;
1970;[970] GUNN B. M. (1970);samp. CE0373;;CROZET ISLANDS / ILE DE L^EST;EAST OF BAIE DU NAUFRAGE;-46.5;52.15;-46.5;52.15;;;OUTCROP;;;SUBAERIAL;VOLCANIC ROCK;ANKARAMITE;;;;;;;;;;WHOLE ROCK;;;;;;;;;;;;;;47.21;2.533;13.22;;;;12.27;;;;10.35;9.84;0.161;;;;;;1.27;XRF;;;2.67;AAS;;;0.48;;;;;;;;;;;;;;;;;;;;;;;;;;;;;;;;;;;;;;;;;;;;;;;;;;;;;;;;;;;;373.9;XRF;;;;;;;;;;;212.4;XRF;;;;;66.6;XRF;;;;;;;;;;;;;;33.2;XRF;;;493.7;XRF;;;;;;;;;;;;;;;;;;;;;;;;253.7;XRF;;;;;;;;;;;;;;;;;;;;;;;;;;;;;;;;;;;;;;;;;;;;;;;;;;;;;;;;;;;;;;7.3;XRF;;;;1.3;XRF;;;;;;;;;;;;;;;;;;;;;;;;;;;;;;;;;;;;;;;;;;;;;;;;;;;;;;;;;;;;;;;;;;;;;;;;;;;;;;;;;;;;;;;;;;;;;;;;;;;;;;;
1970;[970] GUNN B. M. (1970);samp. CE0403;;CROZET ISLANDS / ILE DE L^EST;;-46.5;52.15;-46.5;52.15;;;OUTCROP;;;SUBAERIAL;VOLCANIC ROCK;ANKARAMITE;;;;;;;;;;WHOLE ROCK;;;;;;;;;;;;;;45.68;2.098;9.77;;;;12.1;;;;10.75;16.49;0.158;;;;;;0.82;XRF;;;1.84;AAS;;;0.28;;;;;;;;;;;;;;;;;;;;;;;;;;;;;;;;;;;;;;;;;;;;;;;;;;;;;;;;;;;;1029.3;XRF;;;;;;;;;;;481.6;XRF;;;;;55.7;XRF;;;;;;;;;;;;;;16.4;XRF;;;334.1;XRF;;;;;;;;;;;;;;;;;;;;;;;;187;XRF;;;;;;;;;;;;;;;;;;;;;;;;;;;;;;;;;;;;;;;;;;;;;;;;;;;;;;;;;;;;;;6.3;XRF;;;;1;XRF;;;;;;;;;;;;;;;;;;;;;;;;;;;;;;;;;;;;;;;;;;;;;;;;;;;;;;;;;;;;;;;;;;;;;;;;;;;;;;;;;;;;;;;;;;;;;;;;;;;;;;;
1970;[970] GUNN B. M. (1970);samp. CE0432;;CROZET ISLANDS / ILE DE L^EST;EAST OF BAIE DU NAUFRAGE;-46.5;52.15;-46.5;52.15;;;OUTCROP;;;SUBAERIAL;VOLCANIC ROCK;ANKARAMITE;;;;;;;;;;WHOLE ROCK;;;;;;;;;;;;;;46.9;2.76;13.18;;;;12.69;;;;12.55;7.89;0.163;;;;;;1.16;XRF;;;2.35;AAS;;;0.36;;;;;;;;;;;;;;;;;;;;;;;;;;;;;;;;;;;;;;;;;;;;;;;;;;;;;;;;;;;;172.3;XRF;;;;;;;;;;;112.6;XRF;;;;;76.3;XRF;;;;;;;;;;;;;;27.7;XRF;;;445.7;XRF;;;;;;;;;;;;;;;;;;;;;;;;231.7;XRF;;;;;;;;;;;;;;;;;;;;;;;;;;;;;;;;;;;;;;;;;;;;;;;;;;;;;;;;;;;;;;7.5;XRF;;;;2.9;XRF;;;;;;;;;;;;;;;;;;;;;;;;;;;;;;;;;;;;;;;;;;;;;;;;;;;;;;;;;;;;;;;;;;;;;;;;;;;;;;;;;;;;;;;;;;;;;;;;;;;;;;;
1998;[973] YANG HUAI-JEN (1998);samp. GM92-53;;KERGUELEN / FOCH / MOUNT BUREAU;;-48.55;68.5;-49.75;70.58;130;130;OUTCROP;;;SUBAERIAL;VOLCANIC ROCK;ANKARAMITE;;;;;;;;;;WHOLE ROCK;;;;;;;;;;;;;;44.72;3.4;13.73;;;;13.55;;;;10.94;9.32;0.19;;;;;;1.85;XRF;;;1.65;XRF;;;0.6;;;;;;;;;;;;;;;;;;;;;;;;;;;;;;;;;;;;;;;;;;;;;;;;;27.9;INAA;;;;;;250;XRF;;;217;XRF;;;;;52.6;INAA;;;;;120;XRF;;;;;;;;;118;XRF;;;20.3;XRF;;;;;;35.2;XRF;;;557;XRF;;;23.1;XRF;;;230;XRF;;;49.9;XRF;;;;;;;;;;;;683;XRF;;;37.4;INAA;;;70.9;INAA;;;;;;;33.1;INAA;;;7.65;INAA;;;2.4;INAA;;;;0.84;INAA;;;;;;;1.94;INAA;;;0.24;5.07;INAA;;;2.86;;;;;;;;;;;;;;;;;0.95;TIMS_ID;;;;4;INAA;;;;0.31;TIMS_ID;;;;;;0.512659;;0.1397;0.704911;0.1829;18.397;TIMS;;;;;15.59;TIMS;;;;38.93;TIMS;;;;;;;;;;;;;;;;;;;;;;;;;;;;;;;;;;;;;;;;;;;;;;;;;;;;;;;;;;;;;;;;;;;;;;;;;;;
1988;[1121] HOLM P. M. (1988);samp. 20351_UNLEACHED;;NORTH ATLANTIC IGNEOUS PROVINCE (NAIP) / EAST GREENLAND / VANDFALDSDALEN FORMATION;;66;-24;71;-34;;;OUTCROP;;;SUBAERIAL;VOLCANIC ROCK;ANKARAMITE;;;;;CENOZOIC;;;;;WHOLE ROCK;;;;;;;;;;;;;;;;;;;;;;;;;;;;;;;;;;;;;;;;;;;;;;;;;;;;;;;;;;;;;;;;;;;;;;;;;;;;;;;;;;;;;;;;;;;;;;;;;;;;;;;;;;;;;;;;;;;;;;;;;;;;;;;;;;;;;;;;;;;;;;;;;;;;;;;;;;;;;;;;;;;;;;;;;;;;;;;;;;;;;;;;;;;;;;;;;;;;;;;;;;;;;;;;;;;;;;;;;;;;;;;;;;;;;;;;;;;;;;;;;;0.512805;;0.163;0.706383;;15.645;TIMS;;;;;14.858;TIMS;;;;36.118;TIMS;;;;;;;;;;;;;;;;;;;;;;;;;;;;;;;;;;;;;;;;;;;;;;;;;;;;;;;;;;;;;;;;;;;;;;;;;;;
1988;[1121] HOLM P. M. (1988);samp. 20351_UNLEACHED;;NORTH ATLANTIC IGNEOUS PROVINCE (NAIP) / EAST GREENLAND / VANDFALDSDALEN FORMATION;;66;-24;71;-34;;;OUTCROP;;;SUBAERIAL;VOLCANIC ROCK;ANKARAMITE;;;;;CENOZOIC;;;;;MINERAL / COMPONENT (INCL. GROUNDMASS);CLINOPYROXENE;;;;;PRIMARY;;;;;;;;;;;;;;;;;;;;;;;;;;;;;;;;;;;;;;;;;;;;;;;;;;;;;;;;;;;;;;;;;;;;;;;;;;;;;;;;;;;;;;;;;;;;;;;;;;;;;;;;;;;;;;;;;;;;;;;;;;;;;;;;;;;;;;;;;;;;;;;;;;;;;;;;;;;;;;;;;;;;;;;;;;;;;;;;;;;;;;;;;;;;;;;;;;;;;;;;;;;;;;;;;;;;;;;;;;;;;;;;;;;;;;;;;;;;0.512846;;;0.704719;;;;;;;;;;;;;;;;;;;;;;;;;;;;;;;;;;;;;;;;;;;;;;;;;;;;;;;;;;;;;;;;;;;;;;;;;;;;;;;;;;;;;;;;;
1988;[1121] HOLM P. M. (1988);samp. 20351_LEACHED;;NORTH ATLANTIC IGNEOUS PROVINCE (NAIP) / EAST GREENLAND / VANDFALDSDALEN FORMATION;;66;-24;71;-34;;;OUTCROP;;;SUBAERIAL;VOLCANIC ROCK;ANKARAMITE;;;;;CENOZOIC;;;;;WHOLE ROCK;;;;;;;;;;;;;;;;;;;;;;;;;;;;;;;;;;;;;;;;;;;;;;;;;;;;;;;;;;;;;;;;;;;;;;;;;;;;;;;;;;;;;;;;;;;;;;;;;;;;;;;;;;;;;;;;;;;;;;;;;;;;;;;;;;;;;;;;;;;;;;;;;;;;;;;;;;;;;;;;;;;;;;;;;;;;;;;;;;;;;;;;;;;;;;;;;;;;;;;;;;;;;;;;;;;;;;;;;;;;;;;;;;;;;;;;;;;;;;;;;;;;;0.706306;;;;;;;;;;;;;;;;;;;;;;;;;;;;;;;;;;;;;;;;;;;;;;;;;;;;;;;;;;;;;;;;;;;;;;;;;;;;;;;;;;;;;;;;;
1975;[1158] FERREIRA M. P. (1975);samp. MAD-53;;MADEIRA ARCHIPELAGO / MADEIRA;;32.75;-17;32.75;-17;;;OUTCROP;;;SUBAERIAL;VOLCANIC ROCK;ANKARAMITE;VESICULAR;;;;;;;;;WHOLE ROCK;;;;;;;;;;;;;;;;;;;;;;;;;;;;;;;;;;;;;;;;;;;;;;;;;;;;;;;;;;;;;;;;;;;;9E-09;MS_ID;;;;;;;;;;;;;;;;;;;;;;;;;;;;;;;;;;;;;;;;;;;;;;;;;;;;;;;;;;;;;;;;;;;;;;;;;;;;;;;;;;;;;;;;;;;;;;;;;;;;;;;;;;;;;;;;;;;;;;;;;;;;;;;;;;;;;;;;;;;;;;;;;;;;;;;;;;;;;;;;;;;;;;1.02;DNAA;;;;;;;;;;;;;;;;;;;;;;;;;;;;;;;;;;;;;;;;;;;;;;;;;;;;;;;;;;;;;;;;;;;;;;;;;;;;;;;;;;;;;;;0.004;U-HE;0.39;K-AR;;;;;;;;
1975;[1158] FERREIRA M. P. (1975);samp. PS-6;;MADEIRA ARCHIPELAGO / PORTO SANTO;;33.07;-16.33;33.07;-16.33;350;350;OUTCROP;;;SUBAERIAL;VOLCANIC ROCK;ANKARAMITE;VESICULAR;;;;;;;;;WHOLE ROCK;;;;;;;;;;;;;;;;;;;;;;;;;;;;;;;;;;;;;;;;;;;;;;;;;;;;;;;;;;;;;;;;;;;;1.4005E-06;MS_ID;;;;;;;;;;;;;;;;;;;;;;;;;;;;;;;;;;;;;;;;;;;;;;;;;;;;;;;;;;;;;;;;;;;;;;;;;;;;;;;;;;;;;;;;;;;;;;;;;;;;;;;;;;;;;;;;;;;;;;;;;;;;;;;;;;;;;;;;;;;;;;;;;;;;;;;;;;;;;;;;;;;;;;2.81;DNAA;;;;;;;;;;;;;;;;;;;;;;;;;;;;;;;;;;;;;;;;;;;;;;;;;;;;;;;;;;;;;;;;;;;;;;;;;;;;;;;;;;;;;;;2.29;U-HE;;;;;;;;;;