Year;CITATION;SAMPLE NAME;UNIQUE_ID;LOCATION;LOCATION COMMENT;LATITUDE (MIN.);LONGITUDE (MIN.);LATITUDE (MAX.);LONGITUDE (MAX.);ELEVATION (MIN.);ELEVATION (MAX.);SAMPLING TECHNIQUE;DRILLING DEPTH (MIN.);DRILLING DEPTH (MAX.);LAND/SEA (SAMPLING);ROCK TYPE;ROCK NAME;ROCK TEXTURE;SAMPLE COMMENT;AGE (MIN.);AGE (MAX.);GEOLOGICAL AGE;GEOLOGICAL AGE PREFIX;ERUPTION DAY;ERUPTION MONTH;ERUPTION YEAR;ALTERATION;ALTERATION TYPE;TYPE OF MATERIAL;MINERAL / COMPONENT;SPOT (MINERAL);CRYSTAL;RIM / CORE (MINERAL GRAINS);PRIMARY/SECONDARY;INCLUSION TYPE;MINERAL (INCLUSION);HOSTMINERAL (INCLUSION);HEATING;SIO2(WT%);TIO2(WT%);ZRO2(WT%);HFO2(WT%);THO2(WT%);AL2O3(WT%);CR2O3(WT%);LA2O3(WT%);CE2O3(WT%);ND2O3(WT%);SM2O3(WT%);V2O3(WT%);NB2O5(WT%);FE2O3T(WT%);FE2O3(WT%);FEOT(WT%);FEO(WT%);FET(WT%);CAO(WT%);MGO(WT%);MNO(WT%);BAO(WT%);SRO(WT%);NIO(WT%);ZNO(WT%);RB2O(WT%);K2O(WT%);;;;NA2O(WT%);P2O5(WT%);AS2O5(WT%);H2O(WT%);H2OP(WT%);H2OM(WT%);CO2(WT%);C(WT%);F(WT%);CL(WT%);OH(WT%);SO3(WT%);S(WT%);LOI(WT%);TI(WT%);CA(WT%);K(WT%);LI(PPM);BE(PPM);B(PPM);F(PPM);P(PPM);S(PPM);CL(PPM);AR40(AT/G);;;;AR40(CCMSTP/G);;;;AR40(MOL/G);;;;AR40(PPB);K(PPM);SC(PPM);;;;TI(PPM);V(PPM);;;;CR(PPM);;;;CO(PPM);;;;NI(PPM);;;;CU(PPM);;;;ZN(PPM);;;;GA(PPM);;;;GE(PPM);AS(PPM);AS(PPB);SE(PPM);RB(PPM);;;;;;SR(PPM);;;;;;Y(PPM);;;;ZR(PPM);;;;NB(PPM);;;;MO(PPM);AG(PPM);CD(PPM);IN(PPM);SN(PPM);SB(PPM): altern. values or methods;;;;TE(PPM);CS(PPM): altern. values or methods;;;;BA(PPM): altern. values or methods;;;;LA(PPM): altern. values or methods;;;;CE(PPM): altern. values or methods;;;;PR(PPM);ND(PPM): altern. values or methods;;;;;;SM(PPM): altern. values or methods;;;;EU(PPM): altern. values or methods;;;;GD(PPM): altern. values or methods;;;;TB(PPM): altern. values or methods;;;;DY(PPM): altern. values or methods;;;;HO(PPM);ER(PPM): altern. values or methods;;;;TM(PPM);YB(PPM): altern. values or methods;;;;LU(PPM);HF(PPM);TA(PPM);W(PPM);RE(PPM);AU(PPM);HG(PPM);HG(PPB);TL(PPM);PB(PPM): altern. values or methods;;;;BI(PPM);PO210_ACT(DPM/G);RA226_ACT(DPM/G);TH(PPM): altern. values or methods;;;;U(PPM): altern. values or methods;;;;ND143_ND144;ND143_ND144_INI;EPSILON_ND;EPSILON_ND_INI;SM147_ND144;SR87_SR86;SR87_SR86_INI;EPSILON_SR_INI;RB87_SR86;PB206_PB204: altern. values or methods;;;;PB206_PB204_INI;PB207_PB204: altern. values or methods;;;;PB207_PB204_INI;PB207_PB206;PB208_PB204: altern. values or methods;;;;PB208_PB204_INI;PB208_PB206;HF176_HF177;LU176_HF177;AR38_AR36;AR40_AR36;AR40_AR36_INI;PB206_U238;PB207_U235;RA226_TH230_ACT;PA231_U235_ACT;TH230_TH232_ACT;TH230_U238_ACT;TH232_PB204;U234_U238_ACT;U235_PB204;U238_PB204;U238_TH232_ACT;D7LI(VS LSVEC);D13C(VS PDB);D18O(PER MIL);D18O(VS SMOW);D18O(VS VSMOW);D34S(VS VCDT);ALBITE(MOL%);ANORTHITE(MOL%);CA OLIVINE(MOL%);CHROMITE(MOL%);ENSTATITE(MOL%);FAYALITE(MOL%);FORSTERITE(MOL%);FERROSILITE(MOL%);HEMATITE(MOL%);HERCYNITE(MOL%);ILMENITE(MOL%);MAGNESIOFERRITE(MOL%);MONTICELLITE(MOL%);MAGNETITE(MOL%);ORTHOCLASE(MOL%);PICROCHROMITE(MOL%);SPINEL(MOL%);TEPHROITE(MOL%);ULVOSPINEL(MOL%);WOLLASTONITE(MOL%);AGE(KA): altern. values or methods;;;;;;AGE(MA): altern. values or methods;;;;;;AGE_PB207_U235(MA);AGE_PB206_U238(MA);
2008;[12263] MACDONALD R.(2008)  [GeoReM [4079] ];samp. BB85.40;;EAST AFRICAN RIFT / KENYA RIFT (EASTERN EAST AFRICAN RIFT) / SOUTHERN KENYA RIFT / GREATER OLKARIA(NAIVASHA);;-0.72;36.43;-0.72;36.43;;;OUTCROP;;;SUBAERIAL;VOLCANIC ROCK;BENMOREITE;;DIKE;0;20000;QUATERNARY;;;;;;;MINERAL / COMPONENT (INCL. GROUNDMASS);FELDSPAR;;PHENOCRYST;CORE;PRIMARY;;;;;55.22;;;;;27.27;;;;;;;;;;0.76;;;10.83;;;0.08;0.1;;;;0.41;EMP (EPMA);;;5.21;;;;;;;;;;;;;;;;;;;;;;;;;;;;;;;;;;;;;;;;;;;;;;;;;;;;;;;;;;;;;;;;;;;;;;;;;;;;;;;;;;;;;;;;;;;;;;;;;;;;;;;;;;;;;;;;;;;;;;;;;;;;;;;;;;;;;;;;;;;;;;;;;;;;;;;;;;;;;;;;;;;;;;;;;;;;;;;;;;;;;;;;;;;;;;;;;;;;;;;;;;;;;;;;;;;;;;;;;;;;;;;;;;;;;;;;;;45.445519980144;52.1965748324646;;;;;;;;;;;;;2.35790518739141;;;;;;;;;;;;;;;;;;;;
2008;[12263] MACDONALD R.(2008)  [GeoReM [4079] ];samp. BB85.40;;EAST AFRICAN RIFT / KENYA RIFT (EASTERN EAST AFRICAN RIFT) / SOUTHERN KENYA RIFT / GREATER OLKARIA(NAIVASHA);;-0.72;36.43;-0.72;36.43;;;OUTCROP;;;SUBAERIAL;VOLCANIC ROCK;BENMOREITE;;DIKE;0;20000;QUATERNARY;;;;;;;MINERAL / COMPONENT (INCL. GROUNDMASS);FELDSPAR;;PHENOCRYST;RIM;PRIMARY;;;;;54.5;;;;;28.05;;;;;;;;;;0.72;;;11.64;;;0.06;0.13;;;;0.44;EMP (EPMA);;;4.89;;;;;;;;;;;;;;;;;;;;;;;;;;;;;;;;;;;;;;;;;;;;;;;;;;;;;;;;;;;;;;;;;;;;;;;;;;;;;;;;;;;;;;;;;;;;;;;;;;;;;;;;;;;;;;;;;;;;;;;;;;;;;;;;;;;;;;;;;;;;;;;;;;;;;;;;;;;;;;;;;;;;;;;;;;;;;;;;;;;;;;;;;;;;;;;;;;;;;;;;;;;;;;;;;;;;;;;;;;;;;;;;;;;;;;;;;;42.0781134856301;55.4163596168018;;;;;;;;;;;;;2.50552689756817;;;;;;;;;;;;;;;;;;;;
2008;[12263] MACDONALD R.(2008)  [GeoReM [4079] ];samp. BB85.40;;EAST AFRICAN RIFT / KENYA RIFT (EASTERN EAST AFRICAN RIFT) / SOUTHERN KENYA RIFT / GREATER OLKARIA(NAIVASHA);;-0.72;36.43;-0.72;36.43;;;OUTCROP;;;SUBAERIAL;VOLCANIC ROCK;BENMOREITE;;DIKE;0;20000;QUATERNARY;;;;;;;MINERAL / COMPONENT (INCL. GROUNDMASS);FELDSPAR;;PHENOCRYST;CORE;PRIMARY;;;;;56.29;;;;;26.57;;;;;;;;;;0.7;;;9.49;;;0.04;0.14;;;;0.57;EMP (EPMA);;;5.63;;;;;;;;;;;;;;;;;;;;;;;;;;;;;;;;;;;;;;;;;;;;;;;;;;;;;;;;;;;;;;;;;;;;;;;;;;;;;;;;;;;;;;;;;;;;;;;;;;;;;;;;;;;;;;;;;;;;;;;;;;;;;;;;;;;;;;;;;;;;;;;;;;;;;;;;;;;;;;;;;;;;;;;;;;;;;;;;;;;;;;;;;;;;;;;;;;;;;;;;;;;;;;;;;;;;;;;;;;;;;;;;;;;;;;;;;;50.0126422250316;46.6245259165613;;;;;;;;;;;;;3.36283185840708;;;;;;;;;;;;;;;;;;;;
2008;[12263] MACDONALD R.(2008)  [GeoReM [4079] ];samp. BB85.40;;EAST AFRICAN RIFT / KENYA RIFT (EASTERN EAST AFRICAN RIFT) / SOUTHERN KENYA RIFT / GREATER OLKARIA(NAIVASHA);;-0.72;36.43;-0.72;36.43;;;OUTCROP;;;SUBAERIAL;VOLCANIC ROCK;BENMOREITE;;DIKE;0;20000;QUATERNARY;;;;;;;MINERAL / COMPONENT (INCL. GROUNDMASS);FELDSPAR;;PHENOCRYST;RIM;PRIMARY;;;;;55.54;;;;;27.3;;;;;;;;;;0.71;;;10.25;;;0.13;0.16;;;;0.54;EMP (EPMA);;;4.98;;;;;;;;;;;;;;;;;;;;;;;;;;;;;;;;;;;;;;;;;;;;;;;;;;;;;;;;;;;;;;;;;;;;;;;;;;;;;;;;;;;;;;;;;;;;;;;;;;;;;;;;;;;;;;;;;;;;;;;;;;;;;;;;;;;;;;;;;;;;;;;;;;;;;;;;;;;;;;;;;;;;;;;;;;;;;;;;;;;;;;;;;;;;;;;;;;;;;;;;;;;;;;;;;;;;;;;;;;;;;;;;;;;;;;;;;;45.2547194207396;51.5386604603051;;;;;;;;;;;;;3.20662011895526;;;;;;;;;;;;;;;;;;;;
2008;[12263] MACDONALD R.(2008)  [GeoReM [4079] ];samp. SMN166;;EAST AFRICAN RIFT / KENYA RIFT (EASTERN EAST AFRICAN RIFT) / SOUTHERN KENYA RIFT / GREATER OLKARIA(NAIVASHA);;-0.72;36.43;-0.72;36.43;;;OUTCROP;;;SUBAERIAL;VOLCANIC ROCK;BENMOREITE;;LAVA;0;20000;QUATERNARY;;;;;;;MINERAL / COMPONENT (INCL. GROUNDMASS);FELDSPAR;;PHENOCRYST;CORE;PRIMARY;;;;;61.86;;;;;22.31;;;;;;;;;;0.21;;;3.7;;;1.38;0.07;;;;4.56;EMP (EPMA);;;5.9;;;;;;;;;;;;;;;;;;;;;;;;;;;;;;;;;;;;;;;;;;;;;;;;;;;;;;;;;;;;;;;;;;;;;;;;;;;;;;;;;;;;;;;;;;;;;;;;;;;;;;;;;;;;;;;;;;;;;;;;;;;;;;;;;;;;;;;;;;;;;;;;;;;;;;;;;;;;;;;;;;;;;;;;;;;;;;;;;;;;;;;;;;;;;;;;;;;;;;;;;;;;;;;;;;;;;;;;;;;;;;;;;;;;;;;;;;53.9;18.7;;;;;;;;;;;;;27.4;;;;;;;;;;;;;;;;;;;;
2008;[12263] MACDONALD R.(2008)  [GeoReM [4079] ];samp. SMN166;;EAST AFRICAN RIFT / KENYA RIFT (EASTERN EAST AFRICAN RIFT) / SOUTHERN KENYA RIFT / GREATER OLKARIA(NAIVASHA);;-0.72;36.43;-0.72;36.43;;;OUTCROP;;;SUBAERIAL;VOLCANIC ROCK;BENMOREITE;;LAVA;0;20000;QUATERNARY;;;;;;;MINERAL / COMPONENT (INCL. GROUNDMASS);FELDSPAR;;PHENOCRYST;INTERMEDIATE ZONE;PRIMARY;;;;;61.7;;;;;22.64;;;;;;;;;;0.23;;;4.26;;;1.42;0.08;;;;4.32;EMP (EPMA);;;5.99;;;;;;;;;;;;;;;;;;;;;;;;;;;;;;;;;;;;;;;;;;;;;;;;;;;;;;;;;;;;;;;;;;;;;;;;;;;;;;;;;;;;;;;;;;;;;;;;;;;;;;;;;;;;;;;;;;;;;;;;;;;;;;;;;;;;;;;;;;;;;;;;;;;;;;;;;;;;;;;;;;;;;;;;;;;;;;;;;;;;;;;;;;;;;;;;;;;;;;;;;;;;;;;;;;;;;;;;;;;;;;;;;;;;;;;;;;53.5;21.1;;;;;;;;;;;;;25.4;;;;;;;;;;;;;;;;;;;;
2008;[12263] MACDONALD R.(2008)  [GeoReM [4079] ];samp. SMN166;;EAST AFRICAN RIFT / KENYA RIFT (EASTERN EAST AFRICAN RIFT) / SOUTHERN KENYA RIFT / GREATER OLKARIA(NAIVASHA);;-0.72;36.43;-0.72;36.43;;;OUTCROP;;;SUBAERIAL;VOLCANIC ROCK;BENMOREITE;;LAVA;0;20000;QUATERNARY;;;;;;;MINERAL / COMPONENT (INCL. GROUNDMASS);FELDSPAR;;PHENOCRYST;INTERMEDIATE ZONE;PRIMARY;;;;;60.61;;;;;22.75;;;;;;;;;;0.21;;;4.42;;;1.43;0.08;;;;3.78;EMP (EPMA);;;6.23;;;;;;;;;;;;;;;;;;;;;;;;;;;;;;;;;;;;;;;;;;;;;;;;;;;;;;;;;;;;;;;;;;;;;;;;;;;;;;;;;;;;;;;;;;;;;;;;;;;;;;;;;;;;;;;;;;;;;;;;;;;;;;;;;;;;;;;;;;;;;;;;;;;;;;;;;;;;;;;;;;;;;;;;;;;;;;;;;;;;;;;;;;;;;;;;;;;;;;;;;;;;;;;;;;;;;;;;;;;;;;;;;;;;;;;;;;55.8;21.9;;;;;;;;;;;;;22.3;;;;;;;;;;;;;;;;;;;;
2008;[12263] MACDONALD R.(2008)  [GeoReM [4079] ];samp. SMN166;;EAST AFRICAN RIFT / KENYA RIFT (EASTERN EAST AFRICAN RIFT) / SOUTHERN KENYA RIFT / GREATER OLKARIA(NAIVASHA);;-0.72;36.43;-0.72;36.43;;;OUTCROP;;;SUBAERIAL;VOLCANIC ROCK;BENMOREITE;;LAVA;0;20000;QUATERNARY;;;;;;;MINERAL / COMPONENT (INCL. GROUNDMASS);FELDSPAR;;PHENOCRYST;INTERMEDIATE ZONE;PRIMARY;;;;;60.76;;;;;22.73;;;;;;;;;;0.22;;;4.41;;;1.47;0.06;;;;3.99;EMP (EPMA);;;5.95;;;;;;;;;;;;;;;;;;;;;;;;;;;;;;;;;;;;;;;;;;;;;;;;;;;;;;;;;;;;;;;;;;;;;;;;;;;;;;;;;;;;;;;;;;;;;;;;;;;;;;;;;;;;;;;;;;;;;;;;;;;;;;;;;;;;;;;;;;;;;;;;;;;;;;;;;;;;;;;;;;;;;;;;;;;;;;;;;;;;;;;;;;;;;;;;;;;;;;;;;;;;;;;;;;;;;;;;;;;;;;;;;;;;;;;;;;54.1;22.1;;;;;;;;;;;;;23.8;;;;;;;;;;;;;;;;;;;;
2008;[12263] MACDONALD R.(2008)  [GeoReM [4079] ];samp. SMN166;;EAST AFRICAN RIFT / KENYA RIFT (EASTERN EAST AFRICAN RIFT) / SOUTHERN KENYA RIFT / GREATER OLKARIA(NAIVASHA);;-0.72;36.43;-0.72;36.43;;;OUTCROP;;;SUBAERIAL;VOLCANIC ROCK;BENMOREITE;;LAVA;0;20000;QUATERNARY;;;;;;;MINERAL / COMPONENT (INCL. GROUNDMASS);FELDSPAR;;PHENOCRYST;RIM;PRIMARY;;;;;59.21;;;;;22.84;;;;;;;;;;1.65;;;5.98;;;0.96;0.09;;;;2.37;EMP (EPMA);;;6.32;;;;;;;;;;;;;;;;;;;;;;;;;;;;;;;;;;;;;;;;;;;;;;;;;;;;;;;;;;;;;;;;;;;;;;;;;;;;;;;;;;;;;;;;;;;;;;;;;;;;;;;;;;;;;;;;;;;;;;;;;;;;;;;;;;;;;;;;;;;;;;;;;;;;;;;;;;;;;;;;;;;;;;;;;;;;;;;;;;;;;;;;;;;;;;;;;;;;;;;;;;;;;;;;;;;;;;;;;;;;;;;;;;;;;;;;;;56.5;29.6;;;;;;;;;;;;;14;;;;;;;;;;;;;;;;;;;;
2008;[12263] MACDONALD R.(2008)  [GeoReM [4079] ];samp. SMN166;;EAST AFRICAN RIFT / KENYA RIFT (EASTERN EAST AFRICAN RIFT) / SOUTHERN KENYA RIFT / GREATER OLKARIA(NAIVASHA);;-0.72;36.43;-0.72;36.43;;;OUTCROP;;;SUBAERIAL;VOLCANIC ROCK;BENMOREITE;;LAVA;0;20000;QUATERNARY;;;;;;;MINERAL / COMPONENT (INCL. GROUNDMASS);FELDSPAR;;PHENOCRYST;CORE;PRIMARY;;;;;56.73;;;;;26.15;;;;;;;;;;0.38;;;8.56;;;0.87;0.12;;;;1.28;EMP (EPMA);;;5.55;;;;;;;;;;;;;;;;;;;;;;;;;;;;;;;;;;;;;;;;;;;;;;;;;;;;;;;;;;;;;;;;;;;;;;;;;;;;;;;;;;;;;;;;;;;;;;;;;;;;;;;;;;;;;;;;;;;;;;;;;;;;;;;;;;;;;;;;;;;;;;;;;;;;;;;;;;;;;;;;;;;;;;;;;;;;;;;;;;;;;;;;;;;;;;;;;;;;;;;;;;;;;;;;;;;;;;;;;;;;;;;;;;;;;;;;;;49.9;42.5;;;;;;;;;;;;;7.6;;;;;;;;;;;;;;;;;;;;
2008;[12263] MACDONALD R.(2008)  [GeoReM [4079] ];samp. SMN166;;EAST AFRICAN RIFT / KENYA RIFT (EASTERN EAST AFRICAN RIFT) / SOUTHERN KENYA RIFT / GREATER OLKARIA(NAIVASHA);;-0.72;36.43;-0.72;36.43;;;OUTCROP;;;SUBAERIAL;VOLCANIC ROCK;BENMOREITE;;LAVA;0;20000;QUATERNARY;;;;;;;MINERAL / COMPONENT (INCL. GROUNDMASS);FELDSPAR;;PHENOCRYST;CORE;PRIMARY;;;;;54.46;;;;;27.3;;;;;;;;;;0.72;;;10.56;;;0.16;0.13;;;;0.5;EMP (EPMA);;;5.15;;;;;;;;;;;;;;;;;;;;;;;;;;;;;;;;;;;;;;;;;;;;;;;;;;;;;;;;;;;;;;;;;;;;;;;;;;;;;;;;;;;;;;;;;;;;;;;;;;;;;;;;;;;;;;;;;;;;;;;;;;;;;;;;;;;;;;;;;;;;;;;;;;;;;;;;;;;;;;;;;;;;;;;;;;;;;;;;;;;;;;;;;;;;;;;;;;;;;;;;;;;;;;;;;;;;;;;;;;;;;;;;;;;;;;;;;;45.5;51.5;;;;;;;;;;;;;2.9;;;;;;;;;;;;;;;;;;;;
2008;[12263] MACDONALD R.(2008)  [GeoReM [4079] ];samp. SMN166;;EAST AFRICAN RIFT / KENYA RIFT (EASTERN EAST AFRICAN RIFT) / SOUTHERN KENYA RIFT / GREATER OLKARIA(NAIVASHA);;-0.72;36.43;-0.72;36.43;;;OUTCROP;;;SUBAERIAL;VOLCANIC ROCK;BENMOREITE;;LAVA;0;20000;QUATERNARY;;;;;;;MINERAL / COMPONENT (INCL. GROUNDMASS);FELDSPAR;;PHENOCRYST;CORE;PRIMARY;;;;;59.1;;;;;24.31;;;;;;;;;;0.35;;;6.3;;;1.27;0.09;;;;2.27;EMP (EPMA);;;6.08;;;;;;;;;;;;;;;;;;;;;;;;;;;;;;;;;;;;;;;;;;;;;;;;;;;;;;;;;;;;;;;;;;;;;;;;;;;;;;;;;;;;;;;;;;;;;;;;;;;;;;;;;;;;;;;;;;;;;;;;;;;;;;;;;;;;;;;;;;;;;;;;;;;;;;;;;;;;;;;;;;;;;;;;;;;;;;;;;;;;;;;;;;;;;;;;;;;;;;;;;;;;;;;;;;;;;;;;;;;;;;;;;;;;;;;;;;55;31.5;;;;;;;;;;;;;13.5;;;;;;;;;;;;;;;;;;;;
2008;[12263] MACDONALD R.(2008)  [GeoReM [4079] ];samp. SMN166;;EAST AFRICAN RIFT / KENYA RIFT (EASTERN EAST AFRICAN RIFT) / SOUTHERN KENYA RIFT / GREATER OLKARIA(NAIVASHA);;-0.72;36.43;-0.72;36.43;;;OUTCROP;;;SUBAERIAL;VOLCANIC ROCK;BENMOREITE;;LAVA;0;20000;QUATERNARY;;;;;;;MINERAL / COMPONENT (INCL. GROUNDMASS);FELDSPAR;;PHENOCRYST;CORE;PRIMARY;;;;;57.2;;;;;24.99;;;;;;;;;;0.44;;;7.2;;;1.2;0.13;;;;1.76;EMP (EPMA);;;5.89;;;;;;;;;;;;;;;;;;;;;;;;;;;;;;;;;;;;;;;;;;;;;;;;;;;;;;;;;;;;;;;;;;;;;;;;;;;;;;;;;;;;;;;;;;;;;;;;;;;;;;;;;;;;;;;;;;;;;;;;;;;;;;;;;;;;;;;;;;;;;;;;;;;;;;;;;;;;;;;;;;;;;;;;;;;;;;;;;;;;;;;;;;;;;;;;;;;;;;;;;;;;;;;;;;;;;;;;;;;;;;;;;;;;;;;;;;53.4;36.1;;;;;;;;;;;;;10.5;;;;;;;;;;;;;;;;;;;;
2008;[12263] MACDONALD R.(2008)  [GeoReM [4079] ];samp. SMN166;;EAST AFRICAN RIFT / KENYA RIFT (EASTERN EAST AFRICAN RIFT) / SOUTHERN KENYA RIFT / GREATER OLKARIA(NAIVASHA);;-0.72;36.43;-0.72;36.43;;;OUTCROP;;;SUBAERIAL;VOLCANIC ROCK;BENMOREITE;;LAVA;0;20000;QUATERNARY;;;;;;;MINERAL / COMPONENT (INCL. GROUNDMASS);FELDSPAR;;PHENOCRYST;CORE;PRIMARY;;;;;58.3;;;;;24.98;;;;;;;;;;0.34;;;7.16;;;0.99;0.14;;;;1.79;EMP (EPMA);;;5.99;;;;;;;;;;;;;;;;;;;;;;;;;;;;;;;;;;;;;;;;;;;;;;;;;;;;;;;;;;;;;;;;;;;;;;;;;;;;;;;;;;;;;;;;;;;;;;;;;;;;;;;;;;;;;;;;;;;;;;;;;;;;;;;;;;;;;;;;;;;;;;;;;;;;;;;;;;;;;;;;;;;;;;;;;;;;;;;;;;;;;;;;;;;;;;;;;;;;;;;;;;;;;;;;;;;;;;;;;;;;;;;;;;;;;;;;;;53.9;35.6;;;;;;;;;;;;;10.6;;;;;;;;;;;;;;;;;;;;
2008;[12263] MACDONALD R.(2008)  [GeoReM [4079] ];samp. SMN166;;EAST AFRICAN RIFT / KENYA RIFT (EASTERN EAST AFRICAN RIFT) / SOUTHERN KENYA RIFT / GREATER OLKARIA(NAIVASHA);;-0.72;36.43;-0.72;36.43;;;OUTCROP;;;SUBAERIAL;VOLCANIC ROCK;BENMOREITE;;LAVA;0;20000;QUATERNARY;;;;;;;MINERAL / COMPONENT (INCL. GROUNDMASS);FELDSPAR;;PHENOCRYST;CORE;PRIMARY;;;;;59.39;;;;;24.18;;;;;;;;;;0.33;;;5.97;;;1.24;0.12;;;;2.49;EMP (EPMA);;;5.99;;;;;;;;;;;;;;;;;;;;;;;;;;;;;;;;;;;;;;;;;;;;;;;;;;;;;;;;;;;;;;;;;;;;;;;;;;;;;;;;;;;;;;;;;;;;;;;;;;;;;;;;;;;;;;;;;;;;;;;;;;;;;;;;;;;;;;;;;;;;;;;;;;;;;;;;;;;;;;;;;;;;;;;;;;;;;;;;;;;;;;;;;;;;;;;;;;;;;;;;;;;;;;;;;;;;;;;;;;;;;;;;;;;;;;;;;;54.8;30.2;;;;;;;;;;;;;15;;;;;;;;;;;;;;;;;;;;
2008;[12263] MACDONALD R.(2008)  [GeoReM [4079] ];samp. SMN166;;EAST AFRICAN RIFT / KENYA RIFT (EASTERN EAST AFRICAN RIFT) / SOUTHERN KENYA RIFT / GREATER OLKARIA(NAIVASHA);;-0.72;36.43;-0.72;36.43;;;OUTCROP;;;SUBAERIAL;VOLCANIC ROCK;BENMOREITE;;LAVA;0;20000;QUATERNARY;;;;;;;MINERAL / COMPONENT (INCL. GROUNDMASS);FELDSPAR;;PHENOCRYST;CORE;PRIMARY;;;;;58.16;;;;;24.37;;;;;;;;;;0.35;;;6.44;;;1.13;0.08;;;;2.37;EMP (EPMA);;;6.13;;;;;;;;;;;;;;;;;;;;;;;;;;;;;;;;;;;;;;;;;;;;;;;;;;;;;;;;;;;;;;;;;;;;;;;;;;;;;;;;;;;;;;;;;;;;;;;;;;;;;;;;;;;;;;;;;;;;;;;;;;;;;;;;;;;;;;;;;;;;;;;;;;;;;;;;;;;;;;;;;;;;;;;;;;;;;;;;;;;;;;;;;;;;;;;;;;;;;;;;;;;;;;;;;;;;;;;;;;;;;;;;;;;;;;;;;;54.5;31.7;;;;;;;;;;;;;13.9;;;;;;;;;;;;;;;;;;;;
2008;[12263] MACDONALD R.(2008)  [GeoReM [4079] ];samp. SMN166;;EAST AFRICAN RIFT / KENYA RIFT (EASTERN EAST AFRICAN RIFT) / SOUTHERN KENYA RIFT / GREATER OLKARIA(NAIVASHA);;-0.72;36.43;-0.72;36.43;;;OUTCROP;;;SUBAERIAL;VOLCANIC ROCK;BENMOREITE;;LAVA;0;20000;QUATERNARY;;;;;;;MINERAL / COMPONENT (INCL. GROUNDMASS);FELDSPAR;;PHENOCRYST;RIM;PRIMARY;;;;;57.47;;;;;24.99;;;;;;;;;;0.92;;;7.98;;;0.69;0.13;;;;1.54;EMP (EPMA);;;5.96;;;;;;;;;;;;;;;;;;;;;;;;;;;;;;;;;;;;;;;;;;;;;;;;;;;;;;;;;;;;;;;;;;;;;;;;;;;;;;;;;;;;;;;;;;;;;;;;;;;;;;;;;;;;;;;;;;;;;;;;;;;;;;;;;;;;;;;;;;;;;;;;;;;;;;;;;;;;;;;;;;;;;;;;;;;;;;;;;;;;;;;;;;;;;;;;;;;;;;;;;;;;;;;;;;;;;;;;;;;;;;;;;;;;;;;;;;52.4;38.7;;;;;;;;;;;;;8.9;;;;;;;;;;;;;;;;;;;;
2008;[12263] MACDONALD R.(2008)  [GeoReM [4079] ];samp. SMN166;;EAST AFRICAN RIFT / KENYA RIFT (EASTERN EAST AFRICAN RIFT) / SOUTHERN KENYA RIFT / GREATER OLKARIA(NAIVASHA);;-0.72;36.43;-0.72;36.43;;;OUTCROP;;;SUBAERIAL;VOLCANIC ROCK;BENMOREITE;;LAVA;0;20000;QUATERNARY;;;;;;;MINERAL / COMPONENT (INCL. GROUNDMASS);FELDSPAR;;PHENOCRYST;CORE;PRIMARY;;;;;58.85;;;;;24.41;;;;;;;;;;0.3;;;6.81;;;0.86;0.06;;;;2.09;EMP (EPMA);;;5.96;;;;;;;;;;;;;;;;;;;;;;;;;;;;;;;;;;;;;;;;;;;;;;;;;;;;;;;;;;;;;;;;;;;;;;;;;;;;;;;;;;;;;;;;;;;;;;;;;;;;;;;;;;;;;;;;;;;;;;;;;;;;;;;;;;;;;;;;;;;;;;;;;;;;;;;;;;;;;;;;;;;;;;;;;;;;;;;;;;;;;;;;;;;;;;;;;;;;;;;;;;;;;;;;;;;;;;;;;;;;;;;;;;;;;;;;;;53.7;33.9;;;;;;;;;;;;;12.4;;;;;;;;;;;;;;;;;;;;
2008;[12263] MACDONALD R.(2008)  [GeoReM [4079] ];samp. SMN166;;EAST AFRICAN RIFT / KENYA RIFT (EASTERN EAST AFRICAN RIFT) / SOUTHERN KENYA RIFT / GREATER OLKARIA(NAIVASHA);;-0.72;36.43;-0.72;36.43;;;OUTCROP;;;SUBAERIAL;VOLCANIC ROCK;BENMOREITE;;LAVA;0;20000;QUATERNARY;;;;;;;MINERAL / COMPONENT (INCL. GROUNDMASS);FELDSPAR;;PHENOCRYST;RIM;PRIMARY;;;;;58.97;;;;;23.87;;;;;;;;;;0.83;;;6.26;;;0.96;0.09;;;;2.51;EMP (EPMA);;;5.8;;;;;;;;;;;;;;;;;;;;;;;;;;;;;;;;;;;;;;;;;;;;;;;;;;;;;;;;;;;;;;;;;;;;;;;;;;;;;;;;;;;;;;;;;;;;;;;;;;;;;;;;;;;;;;;;;;;;;;;;;;;;;;;;;;;;;;;;;;;;;;;;;;;;;;;;;;;;;;;;;;;;;;;;;;;;;;;;;;;;;;;;;;;;;;;;;;;;;;;;;;;;;;;;;;;;;;;;;;;;;;;;;;;;;;;;;;53.2;31.7;;;;;;;;;;;;;15.1;;;;;;;;;;;;;;;;;;;;
2008;[12263] MACDONALD R.(2008)  [GeoReM [4079] ];samp. SMN166;;EAST AFRICAN RIFT / KENYA RIFT (EASTERN EAST AFRICAN RIFT) / SOUTHERN KENYA RIFT / GREATER OLKARIA(NAIVASHA);;-0.72;36.43;-0.72;36.43;;;OUTCROP;;;SUBAERIAL;VOLCANIC ROCK;BENMOREITE;;LAVA;0;20000;QUATERNARY;;;;;;;MINERAL / COMPONENT (INCL. GROUNDMASS);FELDSPAR;;PHENOCRYST;CORE;PRIMARY;;;;;62.99;;;;;20.17;;;;;;;;;;0.18;;;1.66;;;1.09;0.02;;;;6.83;EMP (EPMA);;;5.65;;;;;;;;;;;;;;;;;;;;;;;;;;;;;;;;;;;;;;;;;;;;;;;;;;;;;;;;;;;;;;;;;;;;;;;;;;;;;;;;;;;;;;;;;;;;;;;;;;;;;;;;;;;;;;;;;;;;;;;;;;;;;;;;;;;;;;;;;;;;;;;;;;;;;;;;;;;;;;;;;;;;;;;;;;;;;;;;;;;;;;;;;;;;;;;;;;;;;;;;;;;;;;;;;;;;;;;;;;;;;;;;;;;;;;;;;;51.1;8.3;;;;;;;;;;;;;40.7;;;;;;;;;;;;;;;;;;;;
2008;[12263] MACDONALD R.(2008)  [GeoReM [4079] ];samp. SMN166;;EAST AFRICAN RIFT / KENYA RIFT (EASTERN EAST AFRICAN RIFT) / SOUTHERN KENYA RIFT / GREATER OLKARIA(NAIVASHA);;-0.72;36.43;-0.72;36.43;;;OUTCROP;;;SUBAERIAL;VOLCANIC ROCK;BENMOREITE;;LAVA;0;20000;QUATERNARY;;;;;;;MINERAL / COMPONENT (INCL. GROUNDMASS);FELDSPAR;;PHENOCRYST;RIM;PRIMARY;;;;;63.27;;;;;19.53;;;;;;;;;;0.19;;;1.52;;;0.2;0.07;;;;7.82;EMP (EPMA);;;5.38;;;;;;;;;;;;;;;;;;;;;;;;;;;;;;;;;;;;;;;;;;;;;;;;;;;;;;;;;;;;;;;;;;;;;;;;;;;;;;;;;;;;;;;;;;;;;;;;;;;;;;;;;;;;;;;;;;;;;;;;;;;;;;;;;;;;;;;;;;;;;;;;;;;;;;;;;;;;;;;;;;;;;;;;;;;;;;;;;;;;;;;;;;;;;;;;;;;;;;;;;;;;;;;;;;;;;;;;;;;;;;;;;;;;;;;;;;47.4;7.4;;;;;;;;;;;;;45.3;;;;;;;;;;;;;;;;;;;;
2008;[12263] MACDONALD R.(2008)  [GeoReM [4079] ];samp. SMN166;;EAST AFRICAN RIFT / KENYA RIFT (EASTERN EAST AFRICAN RIFT) / SOUTHERN KENYA RIFT / GREATER OLKARIA(NAIVASHA);;-0.72;36.43;-0.72;36.43;;;OUTCROP;;;SUBAERIAL;VOLCANIC ROCK;BENMOREITE;;LAVA;0;20000;QUATERNARY;;;;;;;MINERAL / COMPONENT (INCL. GROUNDMASS);FELDSPAR;;PHENOCRYST;CORE;PRIMARY;;;;;60.98;;;;;21.8;;;;;;;;;;0.42;;;3.32;;;1.82;0.05;;;;5;EMP (EPMA);;;5.8;;;;;;;;;;;;;;;;;;;;;;;;;;;;;;;;;;;;;;;;;;;;;;;;;;;;;;;;;;;;;;;;;;;;;;;;;;;;;;;;;;;;;;;;;;;;;;;;;;;;;;;;;;;;;;;;;;;;;;;;;;;;;;;;;;;;;;;;;;;;;;;;;;;;;;;;;;;;;;;;;;;;;;;;;;;;;;;;;;;;;;;;;;;;;;;;;;;;;;;;;;;;;;;;;;;;;;;;;;;;;;;;;;;;;;;;;;53.1;16.8;;;;;;;;;;;;;30.1;;;;;;;;;;;;;;;;;;;;
2008;[12263] MACDONALD R.(2008)  [GeoReM [4079] ];samp. SMN166;;EAST AFRICAN RIFT / KENYA RIFT (EASTERN EAST AFRICAN RIFT) / SOUTHERN KENYA RIFT / GREATER OLKARIA(NAIVASHA);;-0.72;36.43;-0.72;36.43;;;OUTCROP;;;SUBAERIAL;VOLCANIC ROCK;BENMOREITE;;LAVA;0;20000;QUATERNARY;;;;;;;MINERAL / COMPONENT (INCL. GROUNDMASS);FELDSPAR;;PHENOCRYST;INTERMEDIATE ZONE;PRIMARY;;;;;59.8;;;;;22.8;;;;;;;;;;0.24;;;4.56;;;1.58;0.09;;;;3.44;EMP (EPMA);;;5.93;;;;;;;;;;;;;;;;;;;;;;;;;;;;;;;;;;;;;;;;;;;;;;;;;;;;;;;;;;;;;;;;;;;;;;;;;;;;;;;;;;;;;;;;;;;;;;;;;;;;;;;;;;;;;;;;;;;;;;;;;;;;;;;;;;;;;;;;;;;;;;;;;;;;;;;;;;;;;;;;;;;;;;;;;;;;;;;;;;;;;;;;;;;;;;;;;;;;;;;;;;;;;;;;;;;;;;;;;;;;;;;;;;;;;;;;;;55.3;23.5;;;;;;;;;;;;;21.1;;;;;;;;;;;;;;;;;;;;