Year;CITATION;SAMPLE NAME;UNIQUE_ID;LOCATION;LOCATION COMMENT;LATITUDE (MIN.);LONGITUDE (MIN.);LATITUDE (MAX.);LONGITUDE (MAX.);ELEVATION (MIN.);ELEVATION (MAX.);SAMPLING TECHNIQUE;DRILLING DEPTH (MIN.);DRILLING DEPTH (MAX.);LAND/SEA (SAMPLING);ROCK TYPE;ROCK NAME;ROCK TEXTURE;SAMPLE COMMENT;AGE (MIN.);AGE (MAX.);GEOLOGICAL AGE;GEOLOGICAL AGE PREFIX;ERUPTION DAY;ERUPTION MONTH;ERUPTION YEAR;ALTERATION;ALTERATION TYPE;TYPE OF MATERIAL;MINERAL / COMPONENT;SPOT (MINERAL);CRYSTAL;RIM / CORE (MINERAL GRAINS);PRIMARY/SECONDARY;INCLUSION TYPE;MINERAL (INCLUSION);HOSTMINERAL (INCLUSION);HEATING;SIO2(WT%);TIO2(WT%);ZRO2(WT%);HFO2(WT%);THO2(WT%);AL2O3(WT%);CR2O3(WT%);LA2O3(WT%);CE2O3(WT%);ND2O3(WT%);SM2O3(WT%);V2O3(WT%);NB2O5(WT%);FE2O3T(WT%);FE2O3(WT%);FEOT(WT%);FEO(WT%);FET(WT%);CAO(WT%);MGO(WT%);MNO(WT%);BAO(WT%);SRO(WT%);NIO(WT%);ZNO(WT%);RB2O(WT%);K2O(WT%);;;;NA2O(WT%);P2O5(WT%);AS2O5(WT%);H2O(WT%);H2OP(WT%);H2OM(WT%);CO2(WT%);C(WT%);F(WT%);CL(WT%);OH(WT%);SO3(WT%);S(WT%);LOI(WT%);TI(WT%);CA(WT%);K(WT%);LI(PPM);BE(PPM);B(PPM);F(PPM);P(PPM);S(PPM);CL(PPM);AR40(AT/G);;;;AR40(CCMSTP/G);;;;AR40(MOL/G);;;;AR40(PPB);K(PPM);SC(PPM);;;;TI(PPM);V(PPM);;;;CR(PPM);;;;CO(PPM);;;;NI(PPM);;;;CU(PPM);;;;ZN(PPM);;;;GA(PPM);;;;GE(PPM);AS(PPM);AS(PPB);SE(PPM);RB(PPM);;;;;;SR(PPM);;;;;;Y(PPM);;;;ZR(PPM);;;;NB(PPM);;;;MO(PPM);AG(PPM);CD(PPM);IN(PPM);SN(PPM);SB(PPM): altern. values or methods;;;;TE(PPM);CS(PPM): altern. values or methods;;;;BA(PPM): altern. values or methods;;;;LA(PPM): altern. values or methods;;;;CE(PPM): altern. values or methods;;;;PR(PPM);ND(PPM): altern. values or methods;;;;;;SM(PPM): altern. values or methods;;;;EU(PPM): altern. values or methods;;;;GD(PPM): altern. values or methods;;;;TB(PPM): altern. values or methods;;;;DY(PPM): altern. values or methods;;;;HO(PPM);ER(PPM): altern. values or methods;;;;TM(PPM);YB(PPM): altern. values or methods;;;;LU(PPM);HF(PPM);TA(PPM);W(PPM);RE(PPM);AU(PPM);HG(PPM);HG(PPB);TL(PPM);PB(PPM): altern. values or methods;;;;BI(PPM);PO210_ACT(DPM/G);RA226_ACT(DPM/G);TH(PPM): altern. values or methods;;;;U(PPM): altern. values or methods;;;;ND143_ND144;ND143_ND144_INI;EPSILON_ND;EPSILON_ND_INI;SM147_ND144;SR87_SR86;SR87_SR86_INI;EPSILON_SR_INI;RB87_SR86;PB206_PB204: altern. values or methods;;;;PB206_PB204_INI;PB207_PB204: altern. values or methods;;;;PB207_PB204_INI;PB207_PB206;PB208_PB204: altern. values or methods;;;;PB208_PB204_INI;PB208_PB206;HF176_HF177;LU176_HF177;AR38_AR36;AR40_AR36;AR40_AR36_INI;PB206_U238;PB207_U235;RA226_TH230_ACT;PA231_U235_ACT;TH230_TH232_ACT;TH230_U238_ACT;TH232_PB204;U234_U238_ACT;U235_PB204;U238_PB204;U238_TH232_ACT;D7LI(VS LSVEC);D13C(VS PDB);D18O(PER MIL);D18O(VS SMOW);D18O(VS VSMOW);D34S(VS VCDT);ALBITE(MOL%);ANORTHITE(MOL%);CA OLIVINE(MOL%);CHROMITE(MOL%);ENSTATITE(MOL%);FAYALITE(MOL%);FORSTERITE(MOL%);FERROSILITE(MOL%);HEMATITE(MOL%);HERCYNITE(MOL%);ILMENITE(MOL%);MAGNESIOFERRITE(MOL%);MONTICELLITE(MOL%);MAGNETITE(MOL%);ORTHOCLASE(MOL%);PICROCHROMITE(MOL%);SPINEL(MOL%);TEPHROITE(MOL%);ULVOSPINEL(MOL%);WOLLASTONITE(MOL%);AGE(KA): altern. values or methods;;;;;;AGE(MA): altern. values or methods;;;;;;AGE_PB207_U235(MA);AGE_PB206_U238(MA);
1981;[8625] KYLE P. R. (1981);samp. 1-87.76;;ROSS ISLAND / ROSS ISLAND / MOUNT EREBUS;DRY VALLEY DRILLING PROJECT 1, HUT POINT PENINSULA, SSW FROM MOUNT EREBUS, MCMURDO VOLCANIC GROUP;-77.84;167.15;-77.84;167.15;;;DRILL HOLE ;;;SUBAERIAL;VOLCANIC ROCK;BENMOREITE, NEPHELINE;MICROPORPHYRITIC;;;;CENOZOIC;;;;;;;MINERAL / COMPONENT (INCL. GROUNDMASS);KAERSUTITE;;XENOCRYST;CORE;PRIMARY;;;;;40.3;3.45;;;;10.1;;;;;;;;;;9.16;;;21.9;9.88;0.21;;;;;;0;EMP (EPMA);;;0.98;;;;;;;;;;;;;;;;;;;;;;;;;;;;;;;;;;;;;;;;;;;;;;;;;;;;;;;;;;;;;;;;;;;;;;;;;;;;;;;;;;;;;;;;;;;;;;;;;;;;;;;;;;;;;;;;;;;;;;;;;;;;;;;;;;;;;;;;;;;;;;;;;;;;;;;;;;;;;;;;;;;;;;;;;;;;;;;;;;;;;;;;;;;;;;;;;;;;;;;;;;;;;;;;;;;;;;;;;;;;;;;;;;;;;;;;;;;;;;;;;;;;;;;;;;;;;;;;;;;;;;;;;;;;
1981;[8625] KYLE P. R. (1981);samp. 1-87.76;;ROSS ISLAND / ROSS ISLAND / MOUNT EREBUS;DRY VALLEY DRILLING PROJECT 1, HUT POINT PENINSULA, SSW FROM MOUNT EREBUS, MCMURDO VOLCANIC GROUP;-77.84;167.15;-77.84;167.15;;;DRILL HOLE ;;;SUBAERIAL;VOLCANIC ROCK;BENMOREITE, NEPHELINE;MICROPORPHYRITIC;;;;CENOZOIC;;;;;;;MINERAL / COMPONENT (INCL. GROUNDMASS);KAERSUTITE;;;;PRIMARY;;;;;36.6;5.27;;;;12.6;;;;;;;;;;11.9;;;11.7;12.4;0.18;;;;;;1.23;EMP (EPMA);;;3.08;;;;;;;;;;;;;;;;;;;;;;;;;;;;;;;;;;;;;;;;;;;;;;;;;;;;;;;;;;;;;;;;;;;;;;;;;;;;;;;;;;;;;;;;;;;;;;;;;;;;;;;;;;;;;;;;;;;;;;;;;;;;;;;;;;;;;;;;;;;;;;;;;;;;;;;;;;;;;;;;;;;;;;;;;;;;;;;;;;;;;;;;;;;;;;;;;;;;;;;;;;;;;;;;;;;;;;;;;;;;;;;;;;;;;;;;;;;;;;;;;;;;;;;;;;;;;;;;;;;;;;;;;;;;
1981;[8625] KYLE P. R. (1981);samp. 1-134.03;;ROSS ISLAND / ROSS ISLAND / MOUNT EREBUS;DRY VALLEY DRILLING PROJECT 1, HUT POINT PENINSULA, SSW FROM MOUNT EREBUS, MCMURDO VOLCANIC GROUP;-77.84;167.15;-77.84;167.15;;;DRILL HOLE ;;;SUBAERIAL;VOLCANIC ROCK;BENMOREITE;PILOTAXITIC;;;;CENOZOIC;;;;;;;MINERAL / COMPONENT (INCL. GROUNDMASS);KAERSUTITE;;;;PRIMARY;;;;;38.8;5.56;;;;13.4;;;;;;;;;;11.4;;;11.6;12.4;0.2;;;;;;1.05;EMP (EPMA);;;2.86;;;;;;;;;;;;;;;;;;;;;;;;;;;;;;;;;;;;;;;;;;;;;;;;;;;;;;;;;;;;;;;;;;;;;;;;;;;;;;;;;;;;;;;;;;;;;;;;;;;;;;;;;;;;;;;;;;;;;;;;;;;;;;;;;;;;;;;;;;;;;;;;;;;;;;;;;;;;;;;;;;;;;;;;;;;;;;;;;;;;;;;;;;;;;;;;;;;;;;;;;;;;;;;;;;;;;;;;;;;;;;;;;;;;;;;;;;;;;;;;;;;;;;;;;;;;;;;;;;;;;;;;;;;;
1981;[8625] KYLE P. R. (1981);samp. 1-60.49;;ROSS ISLAND / ROSS ISLAND / MOUNT EREBUS;DRY VALLEY DRILLING PROJECT 1, HUT POINT PENINSULA, SSW FROM MOUNT EREBUS, MCMURDO VOLCANIC GROUP;-77.84;167.15;-77.84;167.15;;;DRILL HOLE ;;;SUBAERIAL;VOLCANIC ROCK;BENMOREITE;MICROPORPHYRITIC;;;;CENOZOIC;;;;;;;MINERAL / COMPONENT (INCL. GROUNDMASS);TITANO-MAGNETITE;;;;PRIMARY;;;;;0.14;19.1;;;;2.4;;;;;;;;;29.7;71;44.2;;0.17;2.09;1.47;;;;;;;;;;;;;;;;;;;;;;;;;;;;;;;;;;;;;;;;;;;;;;;;;;;;;;;;;;;;;;;;;;;;;;;;;;;;;;;;;;;;;;;;;;;;;;;;;;;;;;;;;;;;;;;;;;;;;;;;;;;;;;;;;;;;;;;;;;;;;;;;;;;;;;;;;;;;;;;;;;;;;;;;;;;;;;;;;;;;;;;;;;;;;;;;;;;;;;;;;;;;;;;;;;;;;;;;;;;;;;;;;;;;;;;;;;;;;;;;;;;;;;;0;;;;;;;;7;;34.3;;;5.2;;53.5;;;;;;;;;;;;;;;;
1981;[8625] KYLE P. R. (1981);samp. 2-61.23;126815;ROSS ISLAND / ROSS ISLAND / MOUNT EREBUS;DRY VALLEY DRILLING PROJECT 2, HUT POINT PENINSULA, SSW FROM MOUNT EREBUS, MCMURDO VOLCANIC GROUP;-77.84;167.15;-77.84;167.15;;;DRILL HOLE ;;;SUBAERIAL;VOLCANIC ROCK;BENMOREITE, NEPHELINE;;;;;CENOZOIC;;;;;;;MINERAL / COMPONENT (INCL. GROUNDMASS);TITANO-MAGNETITE;;;;PRIMARY;;;;;0.1;26.5;;;;2.37;;;;;;;;;16.6;64;49;;0;3.67;1.47;;;;;;;;;;;;;;;;;;;;;;;;;;;;;;;;;;;;;;;;;;;;;;;;;;;;;;;;;;;;;;;;;;;;;;;;;;;;;;;;;;;;;;;;;;;;;;;;;;;;;;;;;;;;;;;;;;;;;;;;;;;;;;;;;;;;;;;;;;;;;;;;;;;;;;;;;;;;;;;;;;;;;;;;;;;;;;;;;;;;;;;;;;;;;;;;;;;;;;;;;;;;;;;;;;;;;;;;;;;;;;;;;;;;;;;;;;;;;;;;;;;;;;;0;;;;;;;;14.7;;7.8;;;5;;72.4;;;;;;;;;;;;;;;;
1981;[8625] KYLE P. R. (1981);samp. 2-61.23;126815;ROSS ISLAND / ROSS ISLAND / MOUNT EREBUS;DRY VALLEY DRILLING PROJECT 2, HUT POINT PENINSULA, SSW FROM MOUNT EREBUS, MCMURDO VOLCANIC GROUP;-77.84;167.15;-77.84;167.15;;;DRILL HOLE ;;;SUBAERIAL;VOLCANIC ROCK;BENMOREITE, NEPHELINE;;;;;CENOZOIC;;;;;;;MINERAL / COMPONENT (INCL. GROUNDMASS);TITANO-MAGNETITE;;;;PRIMARY;;;;;0.14;21.9;;;;2.48;;;;;;;;;23.7;69.2;47.8;;0.08;1.57;1.5;;;;;;;;;;;;;;;;;;;;;;;;;;;;;;;;;;;;;;;;;;;;;;;;;;;;;;;;;;;;;;;;;;;;;;;;;;;;;;;;;;;;;;;;;;;;;;;;;;;;;;;;;;;;;;;;;;;;;;;;;;;;;;;;;;;;;;;;;;;;;;;;;;;;;;;;;;;;;;;;;;;;;;;;;;;;;;;;;;;;;;;;;;;;;;;;;;;;;;;;;;;;;;;;;;;;;;;;;;;;;;;;;;;;;;;;;;;;;;;;;;;;;;;0;;;;;;;;3.5;;29.5;;;5.4;;61.5;;;;;;;;;;;;;;;;
1981;[8625] KYLE P. R. (1981);samp. 1-134.03;;ROSS ISLAND / ROSS ISLAND / MOUNT EREBUS;DRY VALLEY DRILLING PROJECT 1, HUT POINT PENINSULA, SSW FROM MOUNT EREBUS, MCMURDO VOLCANIC GROUP;-77.84;167.15;-77.84;167.15;;;DRILL HOLE ;;;SUBAERIAL;VOLCANIC ROCK;BENMOREITE;PILOTAXITIC;;;;CENOZOIC;;;;;;;MINERAL / COMPONENT (INCL. GROUNDMASS);TITANO-MAGNETITE;;;;PRIMARY;;;;;0.12;20;;;;2.34;;;;;;;;;28;69.9;44.7;;0.12;2.39;1.42;;;;;;;;;;;;;;;;;;;;;;;;;;;;;;;;;;;;;;;;;;;;;;;;;;;;;;;;;;;;;;;;;;;;;;;;;;;;;;;;;;;;;;;;;;;;;;;;;;;;;;;;;;;;;;;;;;;;;;;;;;;;;;;;;;;;;;;;;;;;;;;;;;;;;;;;;;;;;;;;;;;;;;;;;;;;;;;;;;;;;;;;;;;;;;;;;;;;;;;;;;;;;;;;;;;;;;;;;;;;;;;;;;;;;;;;;;;;;;;;;;;;;;;0;;;;;;;;8.6;;30.3;;;5.1;;56;;;;;;;;;;;;;;;;
1981;[8625] KYLE P. R. (1981);samp. 1-60.49;;ROSS ISLAND / ROSS ISLAND / MOUNT EREBUS;DRY VALLEY DRILLING PROJECT 1, HUT POINT PENINSULA, SSW FROM MOUNT EREBUS, MCMURDO VOLCANIC GROUP;-77.84;167.15;-77.84;167.15;;;DRILL HOLE ;;;SUBAERIAL;VOLCANIC ROCK;BENMOREITE;MICROPORPHYRITIC;;;;CENOZOIC;;;;;;;MINERAL / COMPONENT (INCL. GROUNDMASS);SPINEL;;;CORE;PRIMARY;;;;;0.12;0.66;;;;15.1;45.6;;;;;;;;5.96;30.5;25.2;;0;5.69;1.01;;;;;;;;;;;;;;;;;;;;;;;;;;;;;;;;;;;;;;;;;;;;;;;;;;;;;;;;;;;;;;;;;;;;;;;;;;;;;;;;;;;;;;;;;;;;;;;;;;;;;;;;;;;;;;;;;;;;;;;;;;;;;;;;;;;;;;;;;;;;;;;;;;;;;;;;;;;;;;;;;;;;;;;;;;;;;;;;;;;;;;;;;;;;;;;;;;;;;;;;;;;;;;;;;;;;;;;;;;;;;;;;;;;;;;;;;;;;;;;;;;;;;;;28.5;;;;;;29.9;;0;;7.5;;32;0;;2.1;;;;;;;;;;;;;;;;
1981;[8625] KYLE P. R. (1981);samp. 2-61.23;126815;ROSS ISLAND / ROSS ISLAND / MOUNT EREBUS;DRY VALLEY DRILLING PROJECT 2, HUT POINT PENINSULA, SSW FROM MOUNT EREBUS, MCMURDO VOLCANIC GROUP;-77.84;167.15;-77.84;167.15;;;DRILL HOLE ;;;SUBAERIAL;VOLCANIC ROCK;BENMOREITE, NEPHELINE;;;;;CENOZOIC;;;;;;;MINERAL / COMPONENT (INCL. GROUNDMASS);ILMENITE;;;;PRIMARY;;;;;0.04;50.3;;;;0.38;;;;;;;;;8.41;42.6;35.1;;0;4.96;1.34;;;;;;;;;;;;;;;;;;;;;;;;;;;;;;;;;;;;;;;;;;;;;;;;;;;;;;;;;;;;;;;;;;;;;;;;;;;;;;;;;;;;;;;;;;;;;;;;;;;;;;;;;;;;;;;;;;;;;;;;;;;;;;;;;;;;;;;;;;;;;;;;;;;;;;;;;;;;;;;;;;;;;;;;;;;;;;;;;;;;;;;;;;;;;;;;;;;;;;;;;;;;;;;;;;;;;;;;;;;;;;;;;;;;;;;;;;;;;;;;;;;;;;;;;;;;10.3;;;;;;;;;;;;;;;;;;;;;;;;;;
2005;[8659] GELDMACHER J.(2005)  [GeoReM [1189] ];samp. 456DR-1;;SELVAGEN ISLANDS / ANIKA;;31.5742;-12.9843;31.5742;-12.9843;-2700;-2700;DREDGE;;;SUBAQUATIC;VOLCANIC ROCK;BENMOREITE;;CONTAINING ALKALI FELDSPAR AND HORNBLENDE PHENOCRYSTS;55000000;55000000;EOCENE;;;;;;;WHOLE ROCK;;;;;;;;;;58.06;1.04;;;;17.93;;;;;;;;5.05;;;;;4.25;1.3;0.24;;;;;;3.85;XRF;;;6.47;0.94;;0.62;;;0.06;;;;;;;0.68;;;;;;;;;;;;;;;;;;;;;;;;;2.01;ICPMS;;;;37;XRF;;;0;XRF;;;9;XRF;;;6;XRF;;;7.06;ICPMS;;;114;ICPMS;;;25.2;ICPMS;;;;;;;81;ICPMS;;;;;1343;XRF;;;;;39;ICPMS;;;671;XRF;;;162;ICPMS;;;;;;;;;;;;;0.53;ICPMS;;;1463;ICPMS;;;146;ICPMS;;;267;ICPMS;;;28.2;100;ICPMS;;;;;17.1;ICPMS;;;4.98;ICPMS;;;11.8;ICPMS;;;1.55;ICPMS;;;8.33;ICPMS;;;1.48;3.7;ICPMS;;;0.48;2.79;ICPMS;;;0.4;16.3;10.4;;;;;;;6.8;ICPMS;;;;;;16.5;ICPMS;;;1.9;ICPMS;;;0.512926;;;;;0.703147;;;;19.705;TIMS;;;;15.589;TIMS;;;;;39.643;TIMS;;;;;;;;;;;;;;;;;;;;;;;;;;;;;;;;;;;;;;;;;;;;;;;;;;;;;;;;;;;;;
2005;[8659] GELDMACHER J.(2005)  [GeoReM [1189] ];samp. 456DR-1;;SELVAGEN ISLANDS / ANIKA;;31.5742;-12.9843;31.5742;-12.9843;-2700;-2700;DREDGE;;;SUBAQUATIC;VOLCANIC ROCK;BENMOREITE;;CONTAINING ALKALI FELDSPAR AND HORNBLENDE PHENOCRYSTS;55000000;55000000;EOCENE;;;;;;;MINERAL / COMPONENT (INCL. GROUNDMASS);FELDSPAR;;;;PRIMARY;;;;;;;;;;;;;;;;;;;;;;;;;;;;;;;;;;;;;;;;;;;;;;;;;;;;;;;;;;;;;;;;;;;;;;;;;;;;;;;;;;;;;;;;;;;;;;;;;;;;;;;;;;;;;;;;;;;;;;;;;;;;;;;;;;;;;;;;;;;;;;;;;;;;;;;;;;;;;;;;;;;;;;;;;;;;;;;;;;;;;;;;;;;;;;;;;;;;;;;;;;;;;;;;;;;;;;;;;;;;;;;;;;;;;;;;;;;;;;;;;;;;;;;;;;;;;;;;;;;;;;;;;;;;;;;;;;;;;;;;;;;;;;;;;;;;;;;55.3;AR-AR;;;;;;;
2005;[8659] GELDMACHER J.(2005)  [GeoReM [1189] ];samp. 456DR-1;;SELVAGEN ISLANDS / ANIKA;;31.5742;-12.9843;31.5742;-12.9843;-2700;-2700;DREDGE;;;SUBAQUATIC;VOLCANIC ROCK;BENMOREITE;;CONTAINING ALKALI FELDSPAR AND HORNBLENDE PHENOCRYSTS;55000000;55000000;EOCENE;;;;;;;MINERAL / COMPONENT (INCL. GROUNDMASS);AMPHIBOLE;;;;PRIMARY;;;;;;;;;;;;;;;;;;;;;;;;;;;;;;;;;;;;;;;;;;;;;;;;;;;;;;;;;;;;;;;;;;;;;;;;;;;;;;;;;;;;;;;;;;;;;;;;;;;;;;;;;;;;;;;;;;;;;;;;;;;;;;;;;;;;;;;;;;;;;;;;;;;;;;;;;;;;;;;;;;;;;;;;;;;;;;;;;;;;;;;;;;;;;;;;;;;;;;;;;;;;;;;;;;;;;;;;;;;;;;;;;;;;;;;;;;;;;;;;;;;;;;;;;;;;;;;;;;;;;;;;;;;;;;;;;;;;;;;;;;;;;;;;;;;;;;;55.1;AR-AR;;;;;;;
2000;[8764] FREYDIER C. (2000);samp. M92-76;;MEXICAN VOLCANIC BELTS / TRANS MEXICAN VOLCANIC BELT / MICHOACAN / MICHOACAN-GUANAJUATO VOLCANIC FIELD - PARICUTIN;CORRALES, ARPEROS BASIN;21.08;-100.76;21.08;-100.76;;;OUTCROP;;;SUBAERIAL;VOLCANIC ROCK;BENMOREITE;;;;;CRETACEOUS;LOWER;;;;;;WHOLE ROCK;;;;;;;;;;61.7;1.3;;;;12.2;;;;;;;;;2.3;;5;;4;4.7;0.1;;;;;;0.03;ICPOES;;;3.9;0.2;;;;;;;;;;;;4.1;;;;;;;;;;;;;;;;;;;;;;;;;;;;;;250;ICPOES;;;25;ICPOES;;;;;;;25;ICPOES;;;;;;;;;;;;;;;;;;;6;ICPOES;;;;;72;ICPOES;;;;;31;ICPOES;;;94;ICPOES;;;5;ICPOES;;;;;;;;;;;;;;;;;23;ICPOES;;;5.3;ICPOES;;;15;ICPOES;;;;11;ICPOES;;;;;3.8;ICPOES;;;1.2;ICPOES;;;4.9;ICPOES;;;;;;;5.1;ICPOES;;;;;;;;;3.2;ICPOES;;;0.5;;;;;;;;;;;;;;;;;;;;;;;;0.513068;;;;0.20722;0.704071;;;0.723;;;;;;;;;;;;;;;;;;;;;;;;;;;;;;;;;;;;;;;;;;;;;;;;;;;;;;;;;;;;;;;;;;;;;;;;;;
2000;[8764] FREYDIER C. (2000);samp. M92-79;;MEXICAN VOLCANIC BELTS / TRANS MEXICAN VOLCANIC BELT / MICHOACAN / MICHOACAN-GUANAJUATO VOLCANIC FIELD - PARICUTIN;CORRALES, ARPEROS BASIN;21.08;-100.76;21.08;-100.76;;;OUTCROP;;;SUBAERIAL;VOLCANIC ROCK;BENMOREITE;;;;;CRETACEOUS;LOWER;;;;;;WHOLE ROCK;;;;;;;;;;59.1;1.5;;;;14.4;;;;;;;;;2.2;;6.4;;4.3;3.5;0.1;;;;;;;;;;3.9;0.5;;;;;;;;;;;;3.1;;;;;;;;;;;;;;;;;;;;;;;;;;;;;;139;ICPOES;;;4;ICPOES;;;;;;;0;ICPOES;;;;;;;;;;;;;;;;;;;2;ICPOES;;;;;112;ICPOES;;;;;66;ICPOES;;;410;ICPOES;;;10;ICPOES;;;;;;;;;;;;;;;;;25;ICPOES;;;10.1;ICPOES;;;27.5;ICPOES;;;;24.1;ICPOES;;;;;7.9;ICPOES;;;2.1;ICPOES;;;10.9;ICPOES;;;;;;;11.4;ICPOES;;;2.1;;;;;;6.6;ICPOES;;;0.9;;;;;;;;;;;;;;;;;;;;;;;;0.513082;;;;0.193137;0.703903;;;0.0516;;;;;;;;;;;;;;;;;;;;;;;;;;;;;;;;;;;;;;;;;;;;;;;;;;;;;;;;;;;;;;;;;;;;;;;;;;
1998;[9082] CHERNET T. (1998);samp. 2C714-10;;EAST AFRICAN RIFT / ETHIOPIAN RIFT / MAIN ETHIOPIAN RIFT / WECHECHA FORMATION;GARA FURI;8.8869;38.6908;8.8869;38.6908;;;OUTCROP;;;SUBAERIAL;VOLCANIC ROCK;BENMOREITE;;;;;;;;;;;;WHOLE ROCK;;;;;;;;;;;;;;;;;;;;;;;;;;;;;;;;;;;;3.78;DCPAES;;;;;;;;;;;;;;;;;;;;;;;;;;;;;;;;;;;2.2E-11;MS_ID;;;;;;;;;;;;;;;;;;;;;;;;;;;;;;;;;;;;;;;;;;;;;;;;;;;;;;;;;;;;;;;;;;;;;;;;;;;;;;;;;;;;;;;;;;;;;;;;;;;;;;;;;;;;;;;;;;;;;;;;;;;;;;;;;;;;;;;;;;;;;;;;;;;;;;;;;;;;;;;;;;;;;;;;;;;;;;;;;;;;;;;;;;;;;;;;;;;;;;;;;;;;;;;;;;;;;;;;;;;;;;;;;;;4.04;K-AR;;;;;;;
1998;[9082] CHERNET T. (1998);samp. 2C714-4;;EAST AFRICAN RIFT / ETHIOPIAN RIFT / MAIN ETHIOPIAN RIFT / WECHECHA FORMATION;W WECHECHA;8.9658;38.5819;8.9658;38.5819;;;OUTCROP;;;SUBAERIAL;VOLCANIC ROCK;BENMOREITE;;;;;;;;;;;;WHOLE ROCK;;;;;;;;;;;;;;;;;;;;;;;;;;;;;;;;;;;;3.24;DCPAES;;;;;;;;;;;;;;;;;;;;;;;;;;;;;;;;;;;1.86E-11;MS_ID;;;;;;;;;;;;;;;;;;;;;;;;;;;;;;;;;;;;;;;;;;;;;;;;;;;;;;;;;;;;;;;;;;;;;;;;;;;;;;;;;;;;;;;;;;;;;;;;;;;;;;;;;;;;;;;;;;;;;;;;;;;;;;;;;;;;;;;;;;;;;;;;;;;;;;;;;;;;;;;;;;;;;;;;;;;;;;;;;;;;;;;;;;;;;;;;;;;;;;;;;;;;;;;;;;;;;;;;;;;;;;;;;;;3.99;K-AR;;;;;;;
1998;[9082] CHERNET T. (1998);samp. AA-1;;EAST AFRICAN RIFT / ETHIOPIAN RIFT / MAIN ETHIOPIAN RIFT / WECHECHA FORMATION;LEDETA;8.9958;38.7114;8.9958;38.7114;;;OUTCROP;;;SUBAERIAL;VOLCANIC ROCK;BENMOREITE;;;;;;;;;;;;WHOLE ROCK;;;;;;;;;;;;;;;;;;;;;;;;;;;;;;;;;;;;3.07;DCPAES;;;;;;;;;;;;;;;;;;;;;;;;;;;;;;;;;;;2.22E-11;MS_ID;;;;;;;;;;;;;;;;;;;;;;;;;;;;;;;;;;;;;;;;;;;;;;;;;;;;;;;;;;;;;;;;;;;;;;;;;;;;;;;;;;;;;;;;;;;;;;;;;;;;;;;;;;;;;;;;;;;;;;;;;;;;;;;;;;;;;;;;;;;;;;;;;;;;;;;;;;;;;;;;;;;;;;;;;;;;;;;;;;;;;;;;;;;;;;;;;;;;;;;;;;;;;;;;;;;;;;;;;;;;;;;;;;;5.03;K-AR;;;;;;;
2002;[9226] SISSON T. W. (2002);samp. S505-R7-15;;HAWAIIAN ISLANDS / HAWAII / KILAUEA / HILINA BASALT;HILINA MID-SLOPE BENCH;19.43;-155.3;19.43;-155.3;;;dive;;;SUBAQUATIC;VOLCANIC ROCK;BENMOREITE;;HILINA BENCH SANDSTONE ANOMALOUS LOW-S GRAINS;;;;;;;;;;VOLCANIC GLASS;;;;;;;;;;55.5;1.31;;;;19.9;;;;;;;;;;8.94;;;3.37;1.48;0.18;;;;;;3.12;EMP (EPMA);;;5.88;0.92;;;;;;;;;;;;;;;;;;;;;450;1450;;;;;;;;;;;;;;;;;;;;;;;;;;;;;;;;;;;;;;;;;;;;;;;;;;;;;;;;;;;;;;;;;;;;;;;;;;;;;;;;;;;;;;;;;;;;;;;;;;;;;;;;;;;;;;;;;;;;;;;;;;;;;;;;;;;;;;;;;;;;;;;;;;;;;;;;;;;;;;;;;;;;;;;;;;;;;;;;;;;;;;;;;;;;;;;;;;;;;;;;;;;;;;;;;;;;;;;;;;;;;;;;;;;;;;;;;;;;;;;;;;;;;
2002;[9226] SISSON T. W. (2002);samp. S505-R6B-36;;HAWAIIAN ISLANDS / HAWAII / KILAUEA / HILINA BASALT;HILINA MID-SLOPE BENCH;19.43;-155.3;19.43;-155.3;;;dive;;;SUBAQUATIC;VOLCANIC ROCK;BENMOREITE;;HILINA BENCH SANDSTONE ANOMALOUS LOW-S GRAINS;;;;;;;;;;VOLCANIC GLASS;;;;;;;;;;55.3;1.33;;;;19.7;;;;;;;;;;9.06;;;3.36;1.53;0.16;;;;;;3.06;EMP (EPMA);;;5.71;0.95;;;;;;;;;;;;;;;;;;;;;550;1500;;;;;;;;;;;;;;;;;;;;;;;;;;;;;;;;;;;;;;;;;;;;;;;;;;;;;;;;;;;;;;;;;;;;;;;;;;;;;;;;;;;;;;;;;;;;;;;;;;;;;;;;;;;;;;;;;;;;;;;;;;;;;;;;;;;;;;;;;;;;;;;;;;;;;;;;;;;;;;;;;;;;;;;;;;;;;;;;;;;;;;;;;;;;;;;;;;;;;;;;;;;;;;;;;;;;;;;;;;;;;;;;;;;;;;;;;;;;;;;;;;;;;
1969;[9235] ABBOTT M. J. (1969);samp. 9;;AUSTRALIA / EASTERN AUSTRALIAN CENOZOIC VOLCANIC ZONE / NEW SOUTH WALES / NANDEWAR;FLOW, 2.5 KM W OF CORYAH GAP ON KAPUTAR ROAD;-30.8;150.27;-30.8;150.27;;;OUTCROP;;;SUBAERIAL;VOLCANIC ROCK;BENMOREITE;;;;;MIOCENE;;;;;;;WHOLE ROCK;;;;;;;;;;53.76;1.8;0.05;;;16.27;;;;;;;;;4.75;;4.99;;5.16;1.89;0.21;0.15;0.08;;;0.01;3.19;NOT;;;5.8;0.96;;;0.19;0.06;0.8;;;;;;;;;;;;;;;;;;;;;;;;;;;;;;;;;;;;;;;;;;;;;;;;;;;;;;;;;;;;;;;;;;;;;60;NOT;;;;;645;NOT;;;;;;;;;393;NOT;;;;;;;;;;;;;;;;;;;;;1324;NOT;;;;;;;;;;;;;;;;;;;;;;;;;;;;;;;;;;;;;;;;;;;;;;;;;;;;;;;;;;;;;;;;;;;;;;;;;;;;;;;;;;;;;;;;;;;;;;;;;;;;;;;;;;;;;;;;;;;;;;;;;;;;;;;;;;;;;;;;;;;;;;;;;;;;;;;;;;
1985;[9323] DE MULDER M. (1985);samp. 369;;EAST AFRICAN RIFT / WESTERN EAST AFRICAN RIFT (TANGANYIKA RIFT) / VIRUNGA PROVINCE / KARISIMBI;EXTREME EAST OF KARISIMBIFIELD, RWANDA;-1.52;29.43;-1.52;29.43;;;OUTCROP;;;SUBAERIAL;VOLCANIC ROCK;BENMOREITE;;;;;;;;;;;;WHOLE ROCK;;;;;;;;;;56.62;1.41;;;;19.33;;;;;;;;;4.65;;1.52;;4.23;1.62;0.13;;;;;;4.15;NOT;;;5.39;0.03;;;0.16;0.17;;;;;;;;;;;;;;;;;;;;;;;;;;;;;;;;;;;;;;;;;;;;;;;;;;;;;;;;;;;;;;;;;;;;;;;;;;;;;;;;;;;;;;;;;;;;;;;;;;;;;;;;;;;;;;;;;;;;;;;;;;;;;;;;;;;;;;;;;;;;;;;;;;;;;;;;;;;;;;;;;;;;;;;;;;;;;;;;;;;;;;;;;;;;;;;;;;;;;;;;;;;;;;;;;;;;;;;;;;;;;;;;;;;;;;;;;;;;;;;;;;;;;;;;;;;;;;;;;;;;;;;
1985;[9323] DE MULDER M. (1985);samp. 396;;EAST AFRICAN RIFT / WESTERN EAST AFRICAN RIFT (TANGANYIKA RIFT) / VIRUNGA PROVINCE / KARISIMBI;EXTREME EAST OF KARISIMBIFIELD, RWANDA;-1.52;29.43;-1.52;29.43;;;OUTCROP;;;SUBAERIAL;VOLCANIC ROCK;BENMOREITE;;;;;;;;;;;;WHOLE ROCK;;;;;;;;;;57.21;1.52;;;;18.17;;;;;;;;;2.94;;2.95;;4.32;0.86;0.13;;;;;;4.33;NOT;;;5.52;0.49;;;0.56;0;;;;;;;;;;3.09;4.58;;;;;;;;;;;;;;;;;;;;;;;;;;;;;;;;;;;;;;;;;;;;;;;;;;;;;;;;;;;184;AAS;;;;;1210;AAS;;;;;;;;;352;XRF;;;;;;;;;;;;;;;;;;;;;;;;;;;;;;;;;;;;;;;;;;;;;;;;;;;;;;;;;;;;;;;;;;;;;;;;;;;;;;;;;;;;;;;;;;;;;;;;;;;;;;;;;;;;;;;;;;;;;;;;;;;;;;;;;;;;;;;;;;;;;;;;;;;;;;;;;;;;;;;;;;;;;;;;;;;;;;;;
1985;[9323] DE MULDER M. (1985);samp. 401;;EAST AFRICAN RIFT / WESTERN EAST AFRICAN RIFT (TANGANYIKA RIFT) / VIRUNGA PROVINCE / KARISIMBI;EXTREME EAST OF KARISIMBIFIELD, RWANDA;-1.52;29.43;-1.52;29.43;;;OUTCROP;;;SUBAERIAL;VOLCANIC ROCK;BENMOREITE;;;;;;;;;;;;WHOLE ROCK;;;;;;;;;;56.32;1.53;;;;18.08;;;;;;;;;5.29;;1.83;;4.74;1.5;0.17;;;;;;4.26;NOT;;;5.57;0.45;;;0.29;0.22;;;;;;;;;;3.39;4.64;16;;;;;;;;;;;;;;;;;;;;;;;;;;;;;;;;;;12;AAS;;;0;AAS;;;3;AAS;;;98;AAS;;;;;;;;;;;;;;;;;1253;AAS;;;;;;;;;;;;;;;;;;;;;;;;;;;;;;;;;;;;;;;;;;;;;;;;;;;;;;;;;;;;;;;;;;;;;;;;;;;;;;;;;;;;;;;;;;;;;;;;;;;;;;;;;;;;;;;;;;;;;;;;;;;;;;;;;;;;;;;;;;;;;;;;;;;;;;;;;;;;;;;;;;;;;;;;;;;;;;;;;;;;;;;;;;
1985;[9323] DE MULDER M. (1985);samp. 401;;EAST AFRICAN RIFT / WESTERN EAST AFRICAN RIFT (TANGANYIKA RIFT) / VIRUNGA PROVINCE / KARISIMBI;EXTREME EAST OF KARISIMBIFIELD, RWANDA;-1.52;29.43;-1.52;29.43;;;OUTCROP;;;SUBAERIAL;VOLCANIC ROCK;BENMOREITE;;;;;;;;;;;;MINERAL / COMPONENT (INCL. GROUNDMASS);CLINOPYROXENE;;;;PRIMARY;;;;;49.27;1.45;;;;3.85;0.03;;;;;;;;;8.46;;;22.03;13.77;0.36;;;;;;0.01;EMP (EPMA);;;0.38;;;;;;;;;;;;;;;;;;;;;;;;;;;;;;;;;;;;;;;;;;;;;;;;;;;;;;;;;;;;;;;;;;;;;;;;;;;;;;;;;;;;;;;;;;;;;;;;;;;;;;;;;;;;;;;;;;;;;;;;;;;;;;;;;;;;;;;;;;;;;;;;;;;;;;;;;;;;;;;;;;;;;;;;;;;;;;;;;;;;;;;;;;;;;;;;;;;;;;;;;;;;;;;;;;;;;;;;;;;;;;;;;;;;;;;;;;;;;;;;;;;;;;;;;;;;;;;;;;;;;;;;;;;;