Year;CITATION;SAMPLE NAME;UNIQUE_ID;LOCATION;LOCATION COMMENT;LATITUDE (MIN.);LONGITUDE (MIN.);LATITUDE (MAX.);LONGITUDE (MAX.);ELEVATION (MIN.);ELEVATION (MAX.);SAMPLING TECHNIQUE;DRILLING DEPTH (MIN.);DRILLING DEPTH (MAX.);LAND/SEA (SAMPLING);ROCK TYPE;ROCK NAME;ROCK TEXTURE;SAMPLE COMMENT;AGE (MIN.);AGE (MAX.);GEOLOGICAL AGE;GEOLOGICAL AGE PREFIX;ERUPTION DAY;ERUPTION MONTH;ERUPTION YEAR;ALTERATION;ALTERATION TYPE;TYPE OF MATERIAL;MINERAL / COMPONENT;SPOT (MINERAL);CRYSTAL;RIM / CORE (MINERAL GRAINS);PRIMARY/SECONDARY;INCLUSION TYPE;MINERAL (INCLUSION);HOSTMINERAL (INCLUSION);HEATING;SIO2(WT%);TIO2(WT%);ZRO2(WT%);HFO2(WT%);THO2(WT%);AL2O3(WT%);CR2O3(WT%);LA2O3(WT%);CE2O3(WT%);ND2O3(WT%);SM2O3(WT%);V2O3(WT%);NB2O5(WT%);FE2O3T(WT%);FE2O3(WT%);FEOT(WT%);FEO(WT%);FET(WT%);CAO(WT%);MGO(WT%);MNO(WT%);BAO(WT%);SRO(WT%);NIO(WT%);ZNO(WT%);RB2O(WT%);K2O(WT%);;;;NA2O(WT%);P2O5(WT%);AS2O5(WT%);H2O(WT%);H2OP(WT%);H2OM(WT%);CO2(WT%);C(WT%);F(WT%);CL(WT%);OH(WT%);SO3(WT%);S(WT%);LOI(WT%);TI(WT%);CA(WT%);K(WT%);LI(PPM);BE(PPM);B(PPM);F(PPM);P(PPM);S(PPM);CL(PPM);AR40(AT/G);;;;AR40(CCMSTP/G);;;;AR40(MOL/G);;;;AR40(PPB);K(PPM);SC(PPM);;;;TI(PPM);V(PPM);;;;CR(PPM);;;;CO(PPM);;;;NI(PPM);;;;CU(PPM);;;;ZN(PPM);;;;GA(PPM);;;;GE(PPM);AS(PPM);AS(PPB);SE(PPM);RB(PPM);;;;;;SR(PPM);;;;;;Y(PPM);;;;ZR(PPM);;;;NB(PPM);;;;MO(PPM);AG(PPM);CD(PPM);IN(PPM);SN(PPM);SB(PPM): altern. values or methods;;;;TE(PPM);CS(PPM): altern. values or methods;;;;BA(PPM): altern. values or methods;;;;LA(PPM): altern. values or methods;;;;CE(PPM): altern. values or methods;;;;PR(PPM);ND(PPM): altern. values or methods;;;;;;SM(PPM): altern. values or methods;;;;EU(PPM): altern. values or methods;;;;GD(PPM): altern. values or methods;;;;TB(PPM): altern. values or methods;;;;DY(PPM): altern. values or methods;;;;HO(PPM);ER(PPM): altern. values or methods;;;;TM(PPM);YB(PPM): altern. values or methods;;;;LU(PPM);HF(PPM);TA(PPM);W(PPM);RE(PPM);AU(PPM);HG(PPM);HG(PPB);TL(PPM);PB(PPM): altern. values or methods;;;;BI(PPM);PO210_ACT(DPM/G);RA226_ACT(DPM/G);TH(PPM): altern. values or methods;;;;U(PPM): altern. values or methods;;;;ND143_ND144;ND143_ND144_INI;EPSILON_ND;EPSILON_ND_INI;SM147_ND144;SR87_SR86;SR87_SR86_INI;EPSILON_SR_INI;RB87_SR86;PB206_PB204: altern. values or methods;;;;PB206_PB204_INI;PB207_PB204: altern. values or methods;;;;PB207_PB204_INI;PB207_PB206;PB208_PB204: altern. values or methods;;;;PB208_PB204_INI;PB208_PB206;HF176_HF177;LU176_HF177;AR38_AR36;AR40_AR36;AR40_AR36_INI;PB206_U238;PB207_U235;RA226_TH230_ACT;PA231_U235_ACT;TH230_TH232_ACT;TH230_U238_ACT;TH232_PB204;U234_U238_ACT;U235_PB204;U238_PB204;U238_TH232_ACT;D7LI(VS LSVEC);D13C(VS PDB);D18O(PER MIL);D18O(VS SMOW);D18O(VS VSMOW);D34S(VS VCDT);ALBITE(MOL%);ANORTHITE(MOL%);CA OLIVINE(MOL%);CHROMITE(MOL%);ENSTATITE(MOL%);FAYALITE(MOL%);FORSTERITE(MOL%);FERROSILITE(MOL%);HEMATITE(MOL%);HERCYNITE(MOL%);ILMENITE(MOL%);MAGNESIOFERRITE(MOL%);MONTICELLITE(MOL%);MAGNETITE(MOL%);ORTHOCLASE(MOL%);PICROCHROMITE(MOL%);SPINEL(MOL%);TEPHROITE(MOL%);ULVOSPINEL(MOL%);WOLLASTONITE(MOL%);AGE(KA): altern. values or methods;;;;;;AGE(MA): altern. values or methods;;;;;;AGE_PB207_U235(MA);AGE_PB206_U238(MA);
2010;[14264] NICOTRA E. (2010);samp. EL89;275669;ETNA/SICILY / ELLITTICO-MONGIBELLO TRANSITION SEQUENCE;PIANO DELLE CONCAZZE AREA, BETWEEN PIZZI DE NERI AND THE NORTH EAST CRATER;37.73;15;37.73;15;2790;2790;OUTCROP;;;SUBAERIAL;VOLCANIC ROCK;BENMOREITE;MESOPHYRIC, SERIATE;;15000;15000;PLEISTOCENE;;;;;;;MINERAL / COMPONENT (INCL. GROUNDMASS);OLIVINE;;;CORE;PRIMARY;;;;;38.8;0.09;;;;0;;;;;;;;;;22.1;;;0.38;37.5;0.71;;;;;;0;EMP (EPMA);;;0.25;;;;;;;;;;;;;;;;;;;;;;;;;;;;;;;;;;;;;;;;;;;;;;;;;;;;;;;;;;;;;;;;;;;;;;;;;;;;;;;;;;;;;;;;;;;;;;;;;;;;;;;;;;;;;;;;;;;;;;;;;;;;;;;;;;;;;;;;;;;;;;;;;;;;;;;;;;;;;;;;;;;;;;;;;;;;;;;;;;;;;;;;;;;;;;;;;;;;;;;;;;;;;;;;;;;;;;;;;;;;;;;;;;;;;;;;;;;;;;;25;75;;;;;;;;;;;0;;;;;;;;;;;;;;;;;
2010;[14264] NICOTRA E. (2010);samp. EL91;275671;ETNA/SICILY / ELLITTICO-MONGIBELLO TRANSITION SEQUENCE;PIANO DELLE CONCAZZE AREA, BETWEEN PIZZI DE NERI AND THE NORTH EAST CRATER;37.73;15;37.73;15;2790;2790;OUTCROP;;;SUBAERIAL;VOLCANIC ROCK;BENMOREITE;MESOPHYRIC, SERIATE;;15000;15000;PLEISTOCENE;;;;;;;MINERAL / COMPONENT (INCL. GROUNDMASS);OLIVINE;;;CORE;PRIMARY;;;;;42.6;0.15;;;;0;;;;;;;;;;16.3;;;0.39;39.8;0.41;;;;;;0;EMP (EPMA);;;0.33;;;;;;;;;;;;;;;;;;;;;;;;;;;;;;;;;;;;;;;;;;;;;;;;;;;;;;;;;;;;;;;;;;;;;;;;;;;;;;;;;;;;;;;;;;;;;;;;;;;;;;;;;;;;;;;;;;;;;;;;;;;;;;;;;;;;;;;;;;;;;;;;;;;;;;;;;;;;;;;;;;;;;;;;;;;;;;;;;;;;;;;;;;;;;;;;;;;;;;;;;;;;;;;;;;;;;;;;;;;;;;;;;;;;;;;;;;;;;;;19;81;;;;;;;;;;;0;;;;;;;;;;;;;;;;;
2010;[14264] NICOTRA E. (2010);samp. EL85;;ETNA/SICILY / ELLITTICO-MONGIBELLO TRANSITION SEQUENCE;PIANO DELLE CONCAZZE AREA, BETWEEN PIZZI DE NERI AND THE NORTH EAST CRATER;37.73;15;37.73;15;2790;2790;OUTCROP;;;SUBAERIAL;VOLCANIC ROCK;BENMOREITE;MESOPHYRIC, SERIATE;LAVA FLOW AT THE BOTTOM;15000;15000;PLEISTOCENE;;;;;;;MINERAL / COMPONENT (INCL. GROUNDMASS);AMORPHOUS SI-RICH PHASE;;;;PRIMARY;;;;;86.2;0;;;;5.67;0;;;;;;;;;0.07;;;0.71;0.3;0;;;;;;0.37;EMP (EPMA);;;0.12;0.09;;;;;;;0.18;0.02;;;;;;;;;;;;;;;;;;;;;;;;;;;;;;;;;;;;;;;;;;;;;;;;;;;;;;;;;;;;;;;;;;;;;;;;;;;;;;;;;;;;;;;;;;;;;;;;;;;;;;;;;;;;;;;;;;;;;;;;;;;;;;;;;;;;;;;;;;;;;;;;;;;;;;;;;;;;;;;;;;;;;;;;;;;;;;;;;;;;;;;;;;;;;;;;;;;;;;;;;;;;;;;;;;;;;;;;;;;;;;;;;;;;;;;;;;;;;;;;;;;;;;;;;;;;;;;;;;;
2010;[14264] NICOTRA E. (2010);samp. EL85;;ETNA/SICILY / ELLITTICO-MONGIBELLO TRANSITION SEQUENCE;PIANO DELLE CONCAZZE AREA, BETWEEN PIZZI DE NERI AND THE NORTH EAST CRATER;37.73;15;37.73;15;2790;2790;OUTCROP;;;SUBAERIAL;VOLCANIC ROCK;BENMOREITE;MESOPHYRIC, SERIATE;LAVA FLOW AT THE BOTTOM;15000;15000;PLEISTOCENE;;;;;;;MINERAL / COMPONENT (INCL. GROUNDMASS);AMORPHOUS SI-RICH PHASE;;;;PRIMARY;;;;;93.6801;0.0112;;;;1.52;0;;;;;;;;;0.059;;;0.3785;0.1066;0.0333;;;;;;0.0981;EMP (EPMA);;;0.0549;0;;;;;;;0;0.0352;;;;;;;;;;;;;;;;;;;;;;;;;;;;;;;;;;;;;;;;;;;;;;;;;;;;;;;;;;;;;;;;;;;;;;;;;;;;;;;;;;;;;;;;;;;;;;;;;;;;;;;;;;;;;;;;;;;;;;;;;;;;;;;;;;;;;;;;;;;;;;;;;;;;;;;;;;;;;;;;;;;;;;;;;;;;;;;;;;;;;;;;;;;;;;;;;;;;;;;;;;;;;;;;;;;;;;;;;;;;;;;;;;;;;;;;;;;;;;;;;;;;;;;;;;;;;;;;;;;
2010;[14264] NICOTRA E. (2010);samp. EL85;;ETNA/SICILY / ELLITTICO-MONGIBELLO TRANSITION SEQUENCE;PIANO DELLE CONCAZZE AREA, BETWEEN PIZZI DE NERI AND THE NORTH EAST CRATER;37.73;15;37.73;15;2790;2790;OUTCROP;;;SUBAERIAL;VOLCANIC ROCK;BENMOREITE;MESOPHYRIC, SERIATE;LAVA FLOW AT THE BOTTOM;15000;15000;PLEISTOCENE;;;;;;;MINERAL / COMPONENT (INCL. GROUNDMASS);AMORPHOUS SI-RICH PHASE;;;;PRIMARY;;;;;91.8966;0;;;;1.4505;0;;;;;;;;;0.0136;;;0.315;0.1175;0;;;;;;0.083;EMP (EPMA);;;0.0308;0;;;;;;;0;0.0517;;;;;;;;;;;;;;;;;;;;;;;;;;;;;;;;;;;;;;;;;;;;;;;;;;;;;;;;;;;;;;;;;;;;;;;;;;;;;;;;;;;;;;;;;;;;;;;;;;;;;;;;;;;;;;;;;;;;;;;;;;;;;;;;;;;;;;;;;;;;;;;;;;;;;;;;;;;;;;;;;;;;;;;;;;;;;;;;;;;;;;;;;;;;;;;;;;;;;;;;;;;;;;;;;;;;;;;;;;;;;;;;;;;;;;;;;;;;;;;;;;;;;;;;;;;;;;;;;;;
2010;[14264] NICOTRA E. (2010);samp. EL85;;ETNA/SICILY / ELLITTICO-MONGIBELLO TRANSITION SEQUENCE;PIANO DELLE CONCAZZE AREA, BETWEEN PIZZI DE NERI AND THE NORTH EAST CRATER;37.73;15;37.73;15;2790;2790;OUTCROP;;;SUBAERIAL;VOLCANIC ROCK;BENMOREITE;MESOPHYRIC, SERIATE;LAVA FLOW AT THE BOTTOM;15000;15000;PLEISTOCENE;;;;;;;MINERAL / COMPONENT (INCL. GROUNDMASS);AMORPHOUS SI-RICH PHASE;;;;PRIMARY;;;;;93.1014;0.0224;;;;1.6194;0.0591;;;;;;;;;0.0635;;;0.3557;0.0868;0;;;;;;0.1373;EMP (EPMA);;;0.0199;0.036;;;;;;;0;0.0634;;;;;;;;;;;;;;;;;;;;;;;;;;;;;;;;;;;;;;;;;;;;;;;;;;;;;;;;;;;;;;;;;;;;;;;;;;;;;;;;;;;;;;;;;;;;;;;;;;;;;;;;;;;;;;;;;;;;;;;;;;;;;;;;;;;;;;;;;;;;;;;;;;;;;;;;;;;;;;;;;;;;;;;;;;;;;;;;;;;;;;;;;;;;;;;;;;;;;;;;;;;;;;;;;;;;;;;;;;;;;;;;;;;;;;;;;;;;;;;;;;;;;;;;;;;;;;;;;;;
2010;[14264] NICOTRA E. (2010);samp. EL85;;ETNA/SICILY / ELLITTICO-MONGIBELLO TRANSITION SEQUENCE;PIANO DELLE CONCAZZE AREA, BETWEEN PIZZI DE NERI AND THE NORTH EAST CRATER;37.73;15;37.73;15;2790;2790;OUTCROP;;;SUBAERIAL;VOLCANIC ROCK;BENMOREITE;MESOPHYRIC, SERIATE;LAVA FLOW AT THE BOTTOM;15000;15000;PLEISTOCENE;;;;;;;MINERAL / COMPONENT (INCL. GROUNDMASS);AMORPHOUS SI-RICH PHASE;;;;PRIMARY;;;;;87.4519;0;;;;3.9453;0.0394;;;;;;;;;0.0227;;;0.4729;0.2216;0.0406;;;;;;0.3439;EMP (EPMA);;;0.1132;0;;;;;;;0.6183;0.007;;;;;;;;;;;;;;;;;;;;;;;;;;;;;;;;;;;;;;;;;;;;;;;;;;;;;;;;;;;;;;;;;;;;;;;;;;;;;;;;;;;;;;;;;;;;;;;;;;;;;;;;;;;;;;;;;;;;;;;;;;;;;;;;;;;;;;;;;;;;;;;;;;;;;;;;;;;;;;;;;;;;;;;;;;;;;;;;;;;;;;;;;;;;;;;;;;;;;;;;;;;;;;;;;;;;;;;;;;;;;;;;;;;;;;;;;;;;;;;;;;;;;;;;;;;;;;;;;;;
2010;[14264] NICOTRA E. (2010);samp. EL85;;ETNA/SICILY / ELLITTICO-MONGIBELLO TRANSITION SEQUENCE;PIANO DELLE CONCAZZE AREA, BETWEEN PIZZI DE NERI AND THE NORTH EAST CRATER;37.73;15;37.73;15;2790;2790;OUTCROP;;;SUBAERIAL;VOLCANIC ROCK;BENMOREITE;MESOPHYRIC, SERIATE;LAVA FLOW AT THE BOTTOM;15000;15000;PLEISTOCENE;;;;;;;MINERAL / COMPONENT (INCL. GROUNDMASS);AMORPHOUS SI-RICH PHASE;;;;PRIMARY;;;;;93.6926;0;;;;1.3463;0;;;;;;;;;0.0635;;;0.1906;0.0983;0.0052;;;;;;0.129;EMP (EPMA);;;0.011;0;;;;;;;0;0.0493;;;;;;;;;;;;;;;;;;;;;;;;;;;;;;;;;;;;;;;;;;;;;;;;;;;;;;;;;;;;;;;;;;;;;;;;;;;;;;;;;;;;;;;;;;;;;;;;;;;;;;;;;;;;;;;;;;;;;;;;;;;;;;;;;;;;;;;;;;;;;;;;;;;;;;;;;;;;;;;;;;;;;;;;;;;;;;;;;;;;;;;;;;;;;;;;;;;;;;;;;;;;;;;;;;;;;;;;;;;;;;;;;;;;;;;;;;;;;;;;;;;;;;;;;;;;;;;;;;;
2010;[14264] NICOTRA E. (2010);samp. EL85;;ETNA/SICILY / ELLITTICO-MONGIBELLO TRANSITION SEQUENCE;PIANO DELLE CONCAZZE AREA, BETWEEN PIZZI DE NERI AND THE NORTH EAST CRATER;37.73;15;37.73;15;2790;2790;OUTCROP;;;SUBAERIAL;VOLCANIC ROCK;BENMOREITE;MESOPHYRIC, SERIATE;LAVA FLOW AT THE BOTTOM;15000;15000;PLEISTOCENE;;;;;;;MINERAL / COMPONENT (INCL. GROUNDMASS);AMORPHOUS SI-RICH PHASE;;;;PRIMARY;;;;;96.5759;0;;;;0.8988;0;;;;;;;;;0.1725;;;0.1781;0.0918;0.0167;;;;;;0.0506;EMP (EPMA);;;0;0;;;;;;;0.0366;0;;;;;;;;;;;;;;;;;;;;;;;;;;;;;;;;;;;;;;;;;;;;;;;;;;;;;;;;;;;;;;;;;;;;;;;;;;;;;;;;;;;;;;;;;;;;;;;;;;;;;;;;;;;;;;;;;;;;;;;;;;;;;;;;;;;;;;;;;;;;;;;;;;;;;;;;;;;;;;;;;;;;;;;;;;;;;;;;;;;;;;;;;;;;;;;;;;;;;;;;;;;;;;;;;;;;;;;;;;;;;;;;;;;;;;;;;;;;;;;;;;;;;;;;;;;;;;;;;;;
2010;[14264] NICOTRA E. (2010);samp. EL85;;ETNA/SICILY / ELLITTICO-MONGIBELLO TRANSITION SEQUENCE;PIANO DELLE CONCAZZE AREA, BETWEEN PIZZI DE NERI AND THE NORTH EAST CRATER;37.73;15;37.73;15;2790;2790;OUTCROP;;;SUBAERIAL;VOLCANIC ROCK;BENMOREITE;MESOPHYRIC, SERIATE;LAVA FLOW AT THE BOTTOM;15000;15000;PLEISTOCENE;;;;;;;MINERAL / COMPONENT (INCL. GROUNDMASS);AMORPHOUS SI-RICH PHASE;;;;PRIMARY;;;;;85.8502;0.0096;;;;6.6848;0;;;;;;;;;0.1767;;;0.8673;0.5205;0;;;;;;0.3972;EMP (EPMA);;;0.0998;0.0265;;;;;;;0.145;0.0374;;;;;;;;;;;;;;;;;;;;;;;;;;;;;;;;;;;;;;;;;;;;;;;;;;;;;;;;;;;;;;;;;;;;;;;;;;;;;;;;;;;;;;;;;;;;;;;;;;;;;;;;;;;;;;;;;;;;;;;;;;;;;;;;;;;;;;;;;;;;;;;;;;;;;;;;;;;;;;;;;;;;;;;;;;;;;;;;;;;;;;;;;;;;;;;;;;;;;;;;;;;;;;;;;;;;;;;;;;;;;;;;;;;;;;;;;;;;;;;;;;;;;;;;;;;;;;;;;;;
2010;[14264] NICOTRA E. (2010);samp. EL85;;ETNA/SICILY / ELLITTICO-MONGIBELLO TRANSITION SEQUENCE;PIANO DELLE CONCAZZE AREA, BETWEEN PIZZI DE NERI AND THE NORTH EAST CRATER;37.73;15;37.73;15;2790;2790;OUTCROP;;;SUBAERIAL;VOLCANIC ROCK;BENMOREITE;MESOPHYRIC, SERIATE;LAVA FLOW AT THE BOTTOM;15000;15000;PLEISTOCENE;;;;;;;MINERAL / COMPONENT (INCL. GROUNDMASS);AMORPHOUS SI-RICH PHASE;;;;PRIMARY;;;;;89.1244;0.0272;;;;6.0486;0.0263;;;;;;;;;0.0227;;;0.917;0.4371;0.0323;;;;;;0.2004;EMP (EPMA);;;0.0204;0;;;;;;;0;0.0281;;;;;;;;;;;;;;;;;;;;;;;;;;;;;;;;;;;;;;;;;;;;;;;;;;;;;;;;;;;;;;;;;;;;;;;;;;;;;;;;;;;;;;;;;;;;;;;;;;;;;;;;;;;;;;;;;;;;;;;;;;;;;;;;;;;;;;;;;;;;;;;;;;;;;;;;;;;;;;;;;;;;;;;;;;;;;;;;;;;;;;;;;;;;;;;;;;;;;;;;;;;;;;;;;;;;;;;;;;;;;;;;;;;;;;;;;;;;;;;;;;;;;;;;;;;;;;;;;;;
2010;[14264] NICOTRA E. (2010);samp. EL85;;ETNA/SICILY / ELLITTICO-MONGIBELLO TRANSITION SEQUENCE;PIANO DELLE CONCAZZE AREA, BETWEEN PIZZI DE NERI AND THE NORTH EAST CRATER;37.73;15;37.73;15;2790;2790;OUTCROP;;;SUBAERIAL;VOLCANIC ROCK;BENMOREITE;MESOPHYRIC, SERIATE;LAVA FLOW AT THE BOTTOM;15000;15000;PLEISTOCENE;;;;;;;MINERAL / COMPONENT (INCL. GROUNDMASS);AMORPHOUS SI-RICH PHASE;;;;PRIMARY;;;;;91.8429;0;;;;1.7526;0.0591;;;;;;;;;0.1315;;;0.4221;0.1361;0.0313;;;;;;0.1168;EMP (EPMA);;;0.0304;0.0206;;;;;;;0.073;0.0329;;;;;;;;;;;;;;;;;;;;;;;;;;;;;;;;;;;;;;;;;;;;;;;;;;;;;;;;;;;;;;;;;;;;;;;;;;;;;;;;;;;;;;;;;;;;;;;;;;;;;;;;;;;;;;;;;;;;;;;;;;;;;;;;;;;;;;;;;;;;;;;;;;;;;;;;;;;;;;;;;;;;;;;;;;;;;;;;;;;;;;;;;;;;;;;;;;;;;;;;;;;;;;;;;;;;;;;;;;;;;;;;;;;;;;;;;;;;;;;;;;;;;;;;;;;;;;;;;;;
2010;[14264] NICOTRA E. (2010);samp. EL85;;ETNA/SICILY / ELLITTICO-MONGIBELLO TRANSITION SEQUENCE;PIANO DELLE CONCAZZE AREA, BETWEEN PIZZI DE NERI AND THE NORTH EAST CRATER;37.73;15;37.73;15;2790;2790;OUTCROP;;;SUBAERIAL;VOLCANIC ROCK;BENMOREITE;MESOPHYRIC, SERIATE;LAVA FLOW AT THE BOTTOM;15000;15000;PLEISTOCENE;;;;;;;MINERAL / COMPONENT (INCL. GROUNDMASS);AMORPHOUS SI-RICH PHASE;;;;PRIMARY;;;;;76.2387;0;;;;12.8986;0;;;;;;;;;0.3347;;;1.2707;0.2671;0.0395;;;;;;0.5308;EMP (EPMA);;;0.1184;0.2813;;;;;;;0.2876;0.0699;;;;;;;;;;;;;;;;;;;;;;;;;;;;;;;;;;;;;;;;;;;;;;;;;;;;;;;;;;;;;;;;;;;;;;;;;;;;;;;;;;;;;;;;;;;;;;;;;;;;;;;;;;;;;;;;;;;;;;;;;;;;;;;;;;;;;;;;;;;;;;;;;;;;;;;;;;;;;;;;;;;;;;;;;;;;;;;;;;;;;;;;;;;;;;;;;;;;;;;;;;;;;;;;;;;;;;;;;;;;;;;;;;;;;;;;;;;;;;;;;;;;;;;;;;;;;;;;;;;
2010;[14264] NICOTRA E. (2010);samp. EL85;;ETNA/SICILY / ELLITTICO-MONGIBELLO TRANSITION SEQUENCE;PIANO DELLE CONCAZZE AREA, BETWEEN PIZZI DE NERI AND THE NORTH EAST CRATER;37.73;15;37.73;15;2790;2790;OUTCROP;;;SUBAERIAL;VOLCANIC ROCK;BENMOREITE;MESOPHYRIC, SERIATE;LAVA FLOW AT THE BOTTOM;15000;15000;PLEISTOCENE;;;;;;;MINERAL / COMPONENT (INCL. GROUNDMASS);AMORPHOUS SI-RICH PHASE;;;;PRIMARY;;;;;91.1617;0;;;;1.8799;0.0197;;;;;;;;;0;;;0.4209;0.1602;0;;;;;;0.1692;EMP (EPMA);;;0.0676;0;;;;;;;0.1824;0.0493;;;;;;;;;;;;;;;;;;;;;;;;;;;;;;;;;;;;;;;;;;;;;;;;;;;;;;;;;;;;;;;;;;;;;;;;;;;;;;;;;;;;;;;;;;;;;;;;;;;;;;;;;;;;;;;;;;;;;;;;;;;;;;;;;;;;;;;;;;;;;;;;;;;;;;;;;;;;;;;;;;;;;;;;;;;;;;;;;;;;;;;;;;;;;;;;;;;;;;;;;;;;;;;;;;;;;;;;;;;;;;;;;;;;;;;;;;;;;;;;;;;;;;;;;;;;;;;;;;;
2010;[14264] NICOTRA E. (2010);samp. EL85;;ETNA/SICILY / ELLITTICO-MONGIBELLO TRANSITION SEQUENCE;PIANO DELLE CONCAZZE AREA, BETWEEN PIZZI DE NERI AND THE NORTH EAST CRATER;37.73;15;37.73;15;2790;2790;OUTCROP;;;SUBAERIAL;VOLCANIC ROCK;BENMOREITE;MESOPHYRIC, SERIATE;LAVA FLOW AT THE BOTTOM;15000;15000;PLEISTOCENE;;;;;;;MINERAL / COMPONENT (INCL. GROUNDMASS);AMORPHOUS SI-RICH PHASE;;;;PRIMARY;;;;;81.9467;0.0335;;;;6.452;0;;;;;;;;;0.136;;;0.5462;0.2829;0.0802;;;;;;0.3123;EMP (EPMA);;;0.1392;0;;;;;;;0.3264;0.1288;;;;;;;;;;;;;;;;;;;;;;;;;;;;;;;;;;;;;;;;;;;;;;;;;;;;;;;;;;;;;;;;;;;;;;;;;;;;;;;;;;;;;;;;;;;;;;;;;;;;;;;;;;;;;;;;;;;;;;;;;;;;;;;;;;;;;;;;;;;;;;;;;;;;;;;;;;;;;;;;;;;;;;;;;;;;;;;;;;;;;;;;;;;;;;;;;;;;;;;;;;;;;;;;;;;;;;;;;;;;;;;;;;;;;;;;;;;;;;;;;;;;;;;;;;;;;;;;;;;
2010;[14264] NICOTRA E. (2010);samp. EL85;;ETNA/SICILY / ELLITTICO-MONGIBELLO TRANSITION SEQUENCE;PIANO DELLE CONCAZZE AREA, BETWEEN PIZZI DE NERI AND THE NORTH EAST CRATER;37.73;15;37.73;15;2790;2790;OUTCROP;;;SUBAERIAL;VOLCANIC ROCK;BENMOREITE;MESOPHYRIC, SERIATE;LAVA FLOW AT THE BOTTOM;15000;15000;PLEISTOCENE;;;;;;;MINERAL / COMPONENT (INCL. GROUNDMASS);AMORPHOUS SI-RICH PHASE;;;;PRIMARY;;;;;94.4178;0;;;;0.7331;0.0197;;;;;;;;;0.0363;;;0.2433;0.084;0.0543;;;;;;0.0671;EMP (EPMA);;;0.043;0;;;;;;;0.0367;0;;;;;;;;;;;;;;;;;;;;;;;;;;;;;;;;;;;;;;;;;;;;;;;;;;;;;;;;;;;;;;;;;;;;;;;;;;;;;;;;;;;;;;;;;;;;;;;;;;;;;;;;;;;;;;;;;;;;;;;;;;;;;;;;;;;;;;;;;;;;;;;;;;;;;;;;;;;;;;;;;;;;;;;;;;;;;;;;;;;;;;;;;;;;;;;;;;;;;;;;;;;;;;;;;;;;;;;;;;;;;;;;;;;;;;;;;;;;;;;;;;;;;;;;;;;;;;;;;;;
2010;[14264] NICOTRA E. (2010);samp. EL85;;ETNA/SICILY / ELLITTICO-MONGIBELLO TRANSITION SEQUENCE;PIANO DELLE CONCAZZE AREA, BETWEEN PIZZI DE NERI AND THE NORTH EAST CRATER;37.73;15;37.73;15;2790;2790;OUTCROP;;;SUBAERIAL;VOLCANIC ROCK;BENMOREITE;MESOPHYRIC, SERIATE;LAVA FLOW AT THE BOTTOM;15000;15000;PLEISTOCENE;;;;;;;MINERAL / COMPONENT (INCL. GROUNDMASS);AMORPHOUS SI-RICH PHASE;;;;PRIMARY;;;;;86.8654;0;;;;5.4401;0.0263;;;;;;;;;0.0318;;;0.3503;0.1416;0;;;;;;0.1886;EMP (EPMA);;;0.0334;0;;;;;;;0;0.007;;;;;;;;;;;;;;;;;;;;;;;;;;;;;;;;;;;;;;;;;;;;;;;;;;;;;;;;;;;;;;;;;;;;;;;;;;;;;;;;;;;;;;;;;;;;;;;;;;;;;;;;;;;;;;;;;;;;;;;;;;;;;;;;;;;;;;;;;;;;;;;;;;;;;;;;;;;;;;;;;;;;;;;;;;;;;;;;;;;;;;;;;;;;;;;;;;;;;;;;;;;;;;;;;;;;;;;;;;;;;;;;;;;;;;;;;;;;;;;;;;;;;;;;;;;;;;;;;;;
2010;[14264] NICOTRA E. (2010);samp. EL85;;ETNA/SICILY / ELLITTICO-MONGIBELLO TRANSITION SEQUENCE;PIANO DELLE CONCAZZE AREA, BETWEEN PIZZI DE NERI AND THE NORTH EAST CRATER;37.73;15;37.73;15;2790;2790;OUTCROP;;;SUBAERIAL;VOLCANIC ROCK;BENMOREITE;MESOPHYRIC, SERIATE;LAVA FLOW AT THE BOTTOM;15000;15000;PLEISTOCENE;;;;;;;MINERAL / COMPONENT (INCL. GROUNDMASS);AMORPHOUS SI-RICH PHASE;;;;PRIMARY;;;;;91.2678;0;;;;1.7115;0.0197;;;;;;;;;0;;;0.4341;0.1191;0;;;;;;0.1366;EMP (EPMA);;;0.0131;0;;;;;;;0.2561;0.0259;;;;;;;;;;;;;;;;;;;;;;;;;;;;;;;;;;;;;;;;;;;;;;;;;;;;;;;;;;;;;;;;;;;;;;;;;;;;;;;;;;;;;;;;;;;;;;;;;;;;;;;;;;;;;;;;;;;;;;;;;;;;;;;;;;;;;;;;;;;;;;;;;;;;;;;;;;;;;;;;;;;;;;;;;;;;;;;;;;;;;;;;;;;;;;;;;;;;;;;;;;;;;;;;;;;;;;;;;;;;;;;;;;;;;;;;;;;;;;;;;;;;;;;;;;;;;;;;;;;
2010;[14264] NICOTRA E. (2010);samp. EL85;;ETNA/SICILY / ELLITTICO-MONGIBELLO TRANSITION SEQUENCE;PIANO DELLE CONCAZZE AREA, BETWEEN PIZZI DE NERI AND THE NORTH EAST CRATER;37.73;15;37.73;15;2790;2790;OUTCROP;;;SUBAERIAL;VOLCANIC ROCK;BENMOREITE;MESOPHYRIC, SERIATE;LAVA FLOW AT THE BOTTOM;15000;15000;PLEISTOCENE;;;;;;;MINERAL / COMPONENT (INCL. GROUNDMASS);AMORPHOUS SI-RICH PHASE;;;;PRIMARY;;;;;95.2462;0;;;;0.5134;0.0658;;;;;;;;;0.0363;;;0.1146;0.0742;0;;;;;;0.0197;EMP (EPMA);;;0;0;;;;;;;0;0.0283;;;;;;;;;;;;;;;;;;;;;;;;;;;;;;;;;;;;;;;;;;;;;;;;;;;;;;;;;;;;;;;;;;;;;;;;;;;;;;;;;;;;;;;;;;;;;;;;;;;;;;;;;;;;;;;;;;;;;;;;;;;;;;;;;;;;;;;;;;;;;;;;;;;;;;;;;;;;;;;;;;;;;;;;;;;;;;;;;;;;;;;;;;;;;;;;;;;;;;;;;;;;;;;;;;;;;;;;;;;;;;;;;;;;;;;;;;;;;;;;;;;;;;;;;;;;;;;;;;;
2010;[14264] NICOTRA E. (2010);samp. EL85;;ETNA/SICILY / ELLITTICO-MONGIBELLO TRANSITION SEQUENCE;PIANO DELLE CONCAZZE AREA, BETWEEN PIZZI DE NERI AND THE NORTH EAST CRATER;37.73;15;37.73;15;2790;2790;OUTCROP;;;SUBAERIAL;VOLCANIC ROCK;BENMOREITE;MESOPHYRIC, SERIATE;LAVA FLOW AT THE BOTTOM;15000;15000;PLEISTOCENE;;;;;;;MINERAL / COMPONENT (INCL. GROUNDMASS);AMORPHOUS SI-RICH PHASE;;;;PRIMARY;;;;;92.9;0.04;;;;0.0752;0;;;;;;;;;0;;;0.1642;0.033;0;;;;;;0.0132;EMP (EPMA);;;0;0;;;;;;;0;0;;;;;;;;;;;;;;;;;;;;;;;;;;;;;;;;;;;;;;;;;;;;;;;;;;;;;;;;;;;;;;;;;;;;;;;;;;;;;;;;;;;;;;;;;;;;;;;;;;;;;;;;;;;;;;;;;;;;;;;;;;;;;;;;;;;;;;;;;;;;;;;;;;;;;;;;;;;;;;;;;;;;;;;;;;;;;;;;;;;;;;;;;;;;;;;;;;;;;;;;;;;;;;;;;;;;;;;;;;;;;;;;;;;;;;;;;;;;;;;;;;;;;;;;;;;;;;;;;;;
2010;[14264] NICOTRA E. (2010);samp. EL85;;ETNA/SICILY / ELLITTICO-MONGIBELLO TRANSITION SEQUENCE;PIANO DELLE CONCAZZE AREA, BETWEEN PIZZI DE NERI AND THE NORTH EAST CRATER;37.73;15;37.73;15;2790;2790;OUTCROP;;;SUBAERIAL;VOLCANIC ROCK;BENMOREITE;MESOPHYRIC, SERIATE;LAVA FLOW AT THE BOTTOM;15000;15000;PLEISTOCENE;;;;;;;MINERAL / COMPONENT (INCL. GROUNDMASS);AMORPHOUS SI-RICH PHASE;;;;PRIMARY;;;;;90.9226;0;;;;0.018;0.0461;;;;;;;;;0.0273;;;0.4031;0.1453;0.0459;;;;;;0.0142;EMP (EPMA);;;0;0;;;;;;;0.1101;0;;;;;;;;;;;;;;;;;;;;;;;;;;;;;;;;;;;;;;;;;;;;;;;;;;;;;;;;;;;;;;;;;;;;;;;;;;;;;;;;;;;;;;;;;;;;;;;;;;;;;;;;;;;;;;;;;;;;;;;;;;;;;;;;;;;;;;;;;;;;;;;;;;;;;;;;;;;;;;;;;;;;;;;;;;;;;;;;;;;;;;;;;;;;;;;;;;;;;;;;;;;;;;;;;;;;;;;;;;;;;;;;;;;;;;;;;;;;;;;;;;;;;;;;;;;;;;;;;;;
2010;[14264] NICOTRA E. (2010);samp. EL85;;ETNA/SICILY / ELLITTICO-MONGIBELLO TRANSITION SEQUENCE;PIANO DELLE CONCAZZE AREA, BETWEEN PIZZI DE NERI AND THE NORTH EAST CRATER;37.73;15;37.73;15;2790;2790;OUTCROP;;;SUBAERIAL;VOLCANIC ROCK;BENMOREITE;MESOPHYRIC, SERIATE;LAVA FLOW AT THE BOTTOM;15000;15000;PLEISTOCENE;;;;;;;MINERAL / COMPONENT (INCL. GROUNDMASS);AMORPHOUS SI-RICH PHASE;;;;PRIMARY;;;;;91.8336;0;;;;0.05;0;;;;;;;;;0.0636;;;0.3256;0.1149;0.0073;;;;;;0.009;EMP (EPMA);;;0;0;;;;;;;0;0.0094;;;;;;;;;;;;;;;;;;;;;;;;;;;;;;;;;;;;;;;;;;;;;;;;;;;;;;;;;;;;;;;;;;;;;;;;;;;;;;;;;;;;;;;;;;;;;;;;;;;;;;;;;;;;;;;;;;;;;;;;;;;;;;;;;;;;;;;;;;;;;;;;;;;;;;;;;;;;;;;;;;;;;;;;;;;;;;;;;;;;;;;;;;;;;;;;;;;;;;;;;;;;;;;;;;;;;;;;;;;;;;;;;;;;;;;;;;;;;;;;;;;;;;;;;;;;;;;;;;;