Year;CITATION;SAMPLE NAME;UNIQUE_ID;LOCATION;LOCATION COMMENT;LATITUDE (MIN.);LONGITUDE (MIN.);LATITUDE (MAX.);LONGITUDE (MAX.);ELEVATION (MIN.);ELEVATION (MAX.);SAMPLING TECHNIQUE;DRILLING DEPTH (MIN.);DRILLING DEPTH (MAX.);LAND/SEA (SAMPLING);ROCK TYPE;ROCK NAME;ROCK TEXTURE;SAMPLE COMMENT;AGE (MIN.);AGE (MAX.);GEOLOGICAL AGE;GEOLOGICAL AGE PREFIX;ERUPTION DAY;ERUPTION MONTH;ERUPTION YEAR;ALTERATION;ALTERATION TYPE;TYPE OF MATERIAL;MINERAL / COMPONENT;SPOT (MINERAL);CRYSTAL;RIM / CORE (MINERAL GRAINS);PRIMARY/SECONDARY;INCLUSION TYPE;MINERAL (INCLUSION);HOSTMINERAL (INCLUSION);HEATING;SIO2(WT%);TIO2(WT%);ZRO2(WT%);HFO2(WT%);THO2(WT%);AL2O3(WT%);CR2O3(WT%);LA2O3(WT%);CE2O3(WT%);ND2O3(WT%);SM2O3(WT%);V2O3(WT%);NB2O5(WT%);FE2O3T(WT%);FE2O3(WT%);FEOT(WT%);FEO(WT%);FET(WT%);CAO(WT%);MGO(WT%);MNO(WT%);BAO(WT%);SRO(WT%);NIO(WT%);ZNO(WT%);RB2O(WT%);K2O(WT%);;;;NA2O(WT%);P2O5(WT%);AS2O5(WT%);H2O(WT%);H2OP(WT%);H2OM(WT%);CO2(WT%);C(WT%);F(WT%);CL(WT%);OH(WT%);SO3(WT%);S(WT%);LOI(WT%);TI(WT%);CA(WT%);K(WT%);LI(PPM);BE(PPM);B(PPM);F(PPM);P(PPM);S(PPM);CL(PPM);AR40(AT/G);;;;AR40(CCMSTP/G);;;;AR40(MOL/G);;;;AR40(PPB);K(PPM);SC(PPM);;;;TI(PPM);V(PPM);;;;CR(PPM);;;;CO(PPM);;;;NI(PPM);;;;CU(PPM);;;;ZN(PPM);;;;GA(PPM);;;;GE(PPM);AS(PPM);AS(PPB);SE(PPM);RB(PPM);;;;;;SR(PPM);;;;;;Y(PPM);;;;ZR(PPM);;;;NB(PPM);;;;MO(PPM);AG(PPM);CD(PPM);IN(PPM);SN(PPM);SB(PPM): altern. values or methods;;;;TE(PPM);CS(PPM): altern. values or methods;;;;BA(PPM): altern. values or methods;;;;LA(PPM): altern. values or methods;;;;CE(PPM): altern. values or methods;;;;PR(PPM);ND(PPM): altern. values or methods;;;;;;SM(PPM): altern. values or methods;;;;EU(PPM): altern. values or methods;;;;GD(PPM): altern. values or methods;;;;TB(PPM): altern. values or methods;;;;DY(PPM): altern. values or methods;;;;HO(PPM);ER(PPM): altern. values or methods;;;;TM(PPM);YB(PPM): altern. values or methods;;;;LU(PPM);HF(PPM);TA(PPM);W(PPM);RE(PPM);AU(PPM);HG(PPM);HG(PPB);TL(PPM);PB(PPM): altern. values or methods;;;;BI(PPM);PO210_ACT(DPM/G);RA226_ACT(DPM/G);TH(PPM): altern. values or methods;;;;U(PPM): altern. values or methods;;;;ND143_ND144;ND143_ND144_INI;EPSILON_ND;EPSILON_ND_INI;SM147_ND144;SR87_SR86;SR87_SR86_INI;EPSILON_SR_INI;RB87_SR86;PB206_PB204: altern. values or methods;;;;PB206_PB204_INI;PB207_PB204: altern. values or methods;;;;PB207_PB204_INI;PB207_PB206;PB208_PB204: altern. values or methods;;;;PB208_PB204_INI;PB208_PB206;HF176_HF177;LU176_HF177;AR38_AR36;AR40_AR36;AR40_AR36_INI;PB206_U238;PB207_U235;RA226_TH230_ACT;PA231_U235_ACT;TH230_TH232_ACT;TH230_U238_ACT;TH232_PB204;U234_U238_ACT;U235_PB204;U238_PB204;U238_TH232_ACT;D7LI(VS LSVEC);D13C(VS PDB);D18O(PER MIL);D18O(VS SMOW);D18O(VS VSMOW);D34S(VS VCDT);ALBITE(MOL%);ANORTHITE(MOL%);CA OLIVINE(MOL%);CHROMITE(MOL%);ENSTATITE(MOL%);FAYALITE(MOL%);FORSTERITE(MOL%);FERROSILITE(MOL%);HEMATITE(MOL%);HERCYNITE(MOL%);ILMENITE(MOL%);MAGNESIOFERRITE(MOL%);MONTICELLITE(MOL%);MAGNETITE(MOL%);ORTHOCLASE(MOL%);PICROCHROMITE(MOL%);SPINEL(MOL%);TEPHROITE(MOL%);ULVOSPINEL(MOL%);WOLLASTONITE(MOL%);AGE(KA): altern. values or methods;;;;;;AGE(MA): altern. values or methods;;;;;;AGE_PB207_U235(MA);AGE_PB206_U238(MA);
1998;[14370] D^ORAZIO M. (1998);samp. VBE-71;203122;ETNA/SICILY / VALLE DEL BOVE VOLCANIC SUCCESSION;ELLITICO VOLCANO;37.73;15;37.73;15;;;OUTCROP;;;SUBAERIAL;VOLCANIC ROCK;BENMOREITE;SUBAPHYRIC TRACHYTIC;PIANO DELLA CONCAZZE UNIT;14000;16000;PLEISTOCENE;;;;;;;MINERAL / COMPONENT (INCL. GROUNDMASS);PLAGIOCLASE;;PHENOCRYST;RIM;PRIMARY;;;;;53.59;;;;;30.24;;;;;;;;0.74;;;;;11.74;;;;;;;;0.28;EMP (EPMA);;;4.52;;;;;;;;;;;;;;;;;;;;;;;;;;;;;;;;;;;;;;;;;;;;;;;;;;;;;;;;;;;;;;;;;;;;;;;;;;;;;;;;;;;;;;;;;;;;;;;;;;;;;;;;;;;;;;;;;;;;;;;;;;;;;;;;;;;;;;;;;;;;;;;;;;;;;;;;;;;;;;;;;;;;;;;;;;;;;;;;;;;;;;;;;;;;;;;;;;;;;;;;;;;;;;;;;;;;;;;;;;;;;;;;;;;;;;;;;;;58;;;;;;;;;;;;;;;;;;;;;;;;;;;;;;;;;
1998;[14370] D^ORAZIO M. (1998);samp. VBE-71;203122;ETNA/SICILY / VALLE DEL BOVE VOLCANIC SUCCESSION;ELLITICO VOLCANO;37.73;15;37.73;15;;;OUTCROP;;;SUBAERIAL;VOLCANIC ROCK;BENMOREITE;SUBAPHYRIC TRACHYTIC;PIANO DELLA CONCAZZE UNIT;14000;16000;PLEISTOCENE;;;;;;;MINERAL / COMPONENT (INCL. GROUNDMASS);PLAGIOCLASE;;PHENOCRYST;RIM;PRIMARY;;;;;58.75;;;;;26.1;;;;;;;;0.76;;;;;7.71;;;;;;;;0.73;EMP (EPMA);;;6.92;;;;;;;;;;;;;;;;;;;;;;;;;;;;;;;;;;;;;;;;;;;;;;;;;;;;;;;;;;;;;;;;;;;;;;;;;;;;;;;;;;;;;;;;;;;;;;;;;;;;;;;;;;;;;;;;;;;;;;;;;;;;;;;;;;;;;;;;;;;;;;;;;;;;;;;;;;;;;;;;;;;;;;;;;;;;;;;;;;;;;;;;;;;;;;;;;;;;;;;;;;;;;;;;;;;;;;;;;;;;;;;;;;;;;;;;;;;36.6;;;;;;;;;;;;;;;;;;;;;;;;;;;;;;;;;
1998;[14370] D^ORAZIO M. (1998);samp. VBE-71;203122;ETNA/SICILY / VALLE DEL BOVE VOLCANIC SUCCESSION;ELLITICO VOLCANO;37.73;15;37.73;15;;;OUTCROP;;;SUBAERIAL;VOLCANIC ROCK;BENMOREITE;SUBAPHYRIC TRACHYTIC;PIANO DELLA CONCAZZE UNIT;14000;16000;PLEISTOCENE;;;;;;;MINERAL / COMPONENT (INCL. GROUNDMASS);PLAGIOCLASE;;PHENOCRYST;CORE;PRIMARY;;;;;53.54;;;;;29.4;;;;;;;;0.68;;;;;11.68;;;;;;;;0.28;EMP (EPMA);;;4.82;;;;;;;;;;;;;;;;;;;;;;;;;;;;;;;;;;;;;;;;;;;;;;;;;;;;;;;;;;;;;;;;;;;;;;;;;;;;;;;;;;;;;;;;;;;;;;;;;;;;;;;;;;;;;;;;;;;;;;;;;;;;;;;;;;;;;;;;;;;;;;;;;;;;;;;;;;;;;;;;;;;;;;;;;;;;;;;;;;;;;;;;;;;;;;;;;;;;;;;;;;;;;;;;;;;;;;;;;;;;;;;;;;;;;;;;;;;56.4;;;;;;;;;;;;;;;;;;;;;;;;;;;;;;;;;
1998;[14370] D^ORAZIO M. (1998);samp. VBE-71;203122;ETNA/SICILY / VALLE DEL BOVE VOLCANIC SUCCESSION;ELLITICO VOLCANO;37.73;15;37.73;15;;;OUTCROP;;;SUBAERIAL;VOLCANIC ROCK;BENMOREITE;SUBAPHYRIC TRACHYTIC;PIANO DELLA CONCAZZE UNIT;14000;16000;PLEISTOCENE;;;;;;;MINERAL / COMPONENT (INCL. GROUNDMASS);PLAGIOCLASE;;PHENOCRYST;CORE;PRIMARY;;;;;53.83;;;;;29.11;;;;;;;;0.61;;;;;11.37;;;;;;;;0.31;EMP (EPMA);;;4.77;;;;;;;;;;;;;;;;;;;;;;;;;;;;;;;;;;;;;;;;;;;;;;;;;;;;;;;;;;;;;;;;;;;;;;;;;;;;;;;;;;;;;;;;;;;;;;;;;;;;;;;;;;;;;;;;;;;;;;;;;;;;;;;;;;;;;;;;;;;;;;;;;;;;;;;;;;;;;;;;;;;;;;;;;;;;;;;;;;;;;;;;;;;;;;;;;;;;;;;;;;;;;;;;;;;;;;;;;;;;;;;;;;;;;;;;;;;55.8;;;;;;;;;;;;;;;;;;;;;;;;;;;;;;;;;
1998;[14370] D^ORAZIO M. (1998);samp. VBE-66;203116;ETNA/SICILY / VALLE DEL BOVE VOLCANIC SUCCESSION;ELLITICO VOLCANO;37.73;15;37.73;15;;;OUTCROP;;;SUBAERIAL;VOLCANIC ROCK;BENMOREITE;SUBAPHYRIC TRACHYTIC;PORTELLA GIUMENTA UNIT;14000;16000;PLEISTOCENE;;;;;;;MINERAL / COMPONENT (INCL. GROUNDMASS);PLAGIOCLASE;;PHENOCRYST;CORE;PRIMARY;;;;;57.41;;;;;26.21;;;;;;;;0.52;;;;;8.92;;;;;;;;0.49;EMP (EPMA);;;5.84;;;;;;;;;;;;;;;;;;;;;;;;;;;;;;;;;;;;;;;;;;;;;;;;;;;;;;;;;;;;;;;;;;;;;;;;;;;;;;;;;;;;;;;;;;;;;;;;;;;;;;;;;;;;;;;;;;;;;;;;;;;;;;;;;;;;;;;;;;;;;;;;;;;;;;;;;;;;;;;;;;;;;;;;;;;;;;;;;;;;;;;;;;;;;;;;;;;;;;;;;;;;;;;;;;;;;;;;;;;;;;;;;;;;;;;;;;;44.4;;;;;;;;;;;;;;;;;;;;;;;;;;;;;;;;;
1998;[14370] D^ORAZIO M. (1998);samp. VBE-66;203116;ETNA/SICILY / VALLE DEL BOVE VOLCANIC SUCCESSION;ELLITICO VOLCANO;37.73;15;37.73;15;;;OUTCROP;;;SUBAERIAL;VOLCANIC ROCK;BENMOREITE;SUBAPHYRIC TRACHYTIC;PORTELLA GIUMENTA UNIT;14000;16000;PLEISTOCENE;;;;;;;MINERAL / COMPONENT (INCL. GROUNDMASS);PLAGIOCLASE;;PHENOCRYST;RIM;PRIMARY;;;;;57.94;;;;;25.58;;;;;;;;0.56;;;;;8.3;;;;;;;;0.56;EMP (EPMA);;;6.12;;;;;;;;;;;;;;;;;;;;;;;;;;;;;;;;;;;;;;;;;;;;;;;;;;;;;;;;;;;;;;;;;;;;;;;;;;;;;;;;;;;;;;;;;;;;;;;;;;;;;;;;;;;;;;;;;;;;;;;;;;;;;;;;;;;;;;;;;;;;;;;;;;;;;;;;;;;;;;;;;;;;;;;;;;;;;;;;;;;;;;;;;;;;;;;;;;;;;;;;;;;;;;;;;;;;;;;;;;;;;;;;;;;;;;;;;;;41.4;;;;;;;;;;;;;;;;;;;;;;;;;;;;;;;;;
1998;[14370] D^ORAZIO M. (1998);samp. VBE-66;203116;ETNA/SICILY / VALLE DEL BOVE VOLCANIC SUCCESSION;ELLITICO VOLCANO;37.73;15;37.73;15;;;OUTCROP;;;SUBAERIAL;VOLCANIC ROCK;BENMOREITE;SUBAPHYRIC TRACHYTIC;PORTELLA GIUMENTA UNIT;14000;16000;PLEISTOCENE;;;;;;;MINERAL / COMPONENT (INCL. GROUNDMASS);PLAGIOCLASE;;PHENOCRYST;RIM;PRIMARY;;;;;57.16;;;;;26.17;;;;;;;;0.45;;;;;9.02;;;;;;;;0.47;EMP (EPMA);;;5.91;;;;;;;;;;;;;;;;;;;;;;;;;;;;;;;;;;;;;;;;;;;;;;;;;;;;;;;;;;;;;;;;;;;;;;;;;;;;;;;;;;;;;;;;;;;;;;;;;;;;;;;;;;;;;;;;;;;;;;;;;;;;;;;;;;;;;;;;;;;;;;;;;;;;;;;;;;;;;;;;;;;;;;;;;;;;;;;;;;;;;;;;;;;;;;;;;;;;;;;;;;;;;;;;;;;;;;;;;;;;;;;;;;;;;;;;;;;44.5;;;;;;;;;;;;;;;;;;;;;;;;;;;;;;;;;
1998;[14370] D^ORAZIO M. (1998);samp. VBE-66;203116;ETNA/SICILY / VALLE DEL BOVE VOLCANIC SUCCESSION;ELLITICO VOLCANO;37.73;15;37.73;15;;;OUTCROP;;;SUBAERIAL;VOLCANIC ROCK;BENMOREITE;SUBAPHYRIC TRACHYTIC;PORTELLA GIUMENTA UNIT;14000;16000;PLEISTOCENE;;;;;;;MINERAL / COMPONENT (INCL. GROUNDMASS);PLAGIOCLASE;;PHENOCRYST;CORE;PRIMARY;;;;;57.06;;;;;26.38;;;;;;;;0.58;;;;;8.86;;;;;;;;0.5;EMP (EPMA);;;5.85;;;;;;;;;;;;;;;;;;;;;;;;;;;;;;;;;;;;;;;;;;;;;;;;;;;;;;;;;;;;;;;;;;;;;;;;;;;;;;;;;;;;;;;;;;;;;;;;;;;;;;;;;;;;;;;;;;;;;;;;;;;;;;;;;;;;;;;;;;;;;;;;;;;;;;;;;;;;;;;;;;;;;;;;;;;;;;;;;;;;;;;;;;;;;;;;;;;;;;;;;;;;;;;;;;;;;;;;;;;;;;;;;;;;;;;;;;;44.2;;;;;;;;;;;;;;;;;;;;;;;;;;;;;;;;;
1998;[14370] D^ORAZIO M. (1998);samp. VBE-66;203116;ETNA/SICILY / VALLE DEL BOVE VOLCANIC SUCCESSION;ELLITICO VOLCANO;37.73;15;37.73;15;;;OUTCROP;;;SUBAERIAL;VOLCANIC ROCK;BENMOREITE;SUBAPHYRIC TRACHYTIC;PORTELLA GIUMENTA UNIT;14000;16000;PLEISTOCENE;;;;;;;MINERAL / COMPONENT (INCL. GROUNDMASS);PLAGIOCLASE;;PHENOCRYST;RIM;PRIMARY;;;;;54.74;;;;;27.07;;;;;;;;0.63;;;;;10.1;;;;;;;;0.43;EMP (EPMA);;;5.36;;;;;;;;;;;;;;;;;;;;;;;;;;;;;;;;;;;;;;;;;;;;;;;;;;;;;;;;;;;;;;;;;;;;;;;;;;;;;;;;;;;;;;;;;;;;;;;;;;;;;;;;;;;;;;;;;;;;;;;;;;;;;;;;;;;;;;;;;;;;;;;;;;;;;;;;;;;;;;;;;;;;;;;;;;;;;;;;;;;;;;;;;;;;;;;;;;;;;;;;;;;;;;;;;;;;;;;;;;;;;;;;;;;;;;;;;;;49.7;;;;;;;;;;;;;;;;;;;;;;;;;;;;;;;;;
1998;[14370] D^ORAZIO M. (1998);samp. VBE-66;203116;ETNA/SICILY / VALLE DEL BOVE VOLCANIC SUCCESSION;ELLITICO VOLCANO;37.73;15;37.73;15;;;OUTCROP;;;SUBAERIAL;VOLCANIC ROCK;BENMOREITE;SUBAPHYRIC TRACHYTIC;PORTELLA GIUMENTA UNIT;14000;16000;PLEISTOCENE;;;;;;;MINERAL / COMPONENT (INCL. GROUNDMASS);PLAGIOCLASE;;PHENOCRYST;RIM;PRIMARY;;;;;55.09;;;;;27.45;;;;;;;;0.61;;;;;10.55;;;;;;;;0.4;EMP (EPMA);;;5.09;;;;;;;;;;;;;;;;;;;;;;;;;;;;;;;;;;;;;;;;;;;;;;;;;;;;;;;;;;;;;;;;;;;;;;;;;;;;;;;;;;;;;;;;;;;;;;;;;;;;;;;;;;;;;;;;;;;;;;;;;;;;;;;;;;;;;;;;;;;;;;;;;;;;;;;;;;;;;;;;;;;;;;;;;;;;;;;;;;;;;;;;;;;;;;;;;;;;;;;;;;;;;;;;;;;;;;;;;;;;;;;;;;;;;;;;;;;52.1;;;;;;;;;;;;;;;;;;;;;;;;;;;;;;;;;
1998;[14370] D^ORAZIO M. (1998);samp. VBE-66;203116;ETNA/SICILY / VALLE DEL BOVE VOLCANIC SUCCESSION;ELLITICO VOLCANO;37.73;15;37.73;15;;;OUTCROP;;;SUBAERIAL;VOLCANIC ROCK;BENMOREITE;SUBAPHYRIC TRACHYTIC;PORTELLA GIUMENTA UNIT;14000;16000;PLEISTOCENE;;;;;;;MINERAL / COMPONENT (INCL. GROUNDMASS);PLAGIOCLASE;;PHENOCRYST;RIM;PRIMARY;;;;;54.04;;;;;29.86;;;;;;;;0.87;;;;;11.67;;;;;;;;0.31;EMP (EPMA);;;4.66;;;;;;;;;;;;;;;;;;;;;;;;;;;;;;;;;;;;;;;;;;;;;;;;;;;;;;;;;;;;;;;;;;;;;;;;;;;;;;;;;;;;;;;;;;;;;;;;;;;;;;;;;;;;;;;;;;;;;;;;;;;;;;;;;;;;;;;;;;;;;;;;;;;;;;;;;;;;;;;;;;;;;;;;;;;;;;;;;;;;;;;;;;;;;;;;;;;;;;;;;;;;;;;;;;;;;;;;;;;;;;;;;;;;;;;;;;;57;;;;;;;;;;;;;;;;;;;;;;;;;;;;;;;;;
1998;[14370] D^ORAZIO M. (1998);samp. VBE-71;203122;ETNA/SICILY / VALLE DEL BOVE VOLCANIC SUCCESSION;ELLITICO VOLCANO;37.73;15;37.73;15;;;OUTCROP;;;SUBAERIAL;VOLCANIC ROCK;BENMOREITE;SUBAPHYRIC TRACHYTIC;PIANO DELLA CONCAZZE UNIT;14000;16000;PLEISTOCENE;;;;;;;MINERAL / COMPONENT (INCL. GROUNDMASS);CLINOPYROXENE;;PHENOCRYST;CORE;PRIMARY;;;;;51.04;0.88;;;;3.29;;;;;;;;;;7.62;;;22.03;14.96;0.18;;;;;;;;;;0.39;;;;;;;;;;;;;;;;;;;;;;;;;;;;;;;;;;;;;;;;;;;;;;;;;;;;;;;;;;;;;;;;;;;;;;;;;;;;;;;;;;;;;;;;;;;;;;;;;;;;;;;;;;;;;;;;;;;;;;;;;;;;;;;;;;;;;;;;;;;;;;;;;;;;;;;;;;;;;;;;;;;;;;;;;;;;;;;;;;;;;;;;;;;;;;;;;;;;;;;;;;;;;;;;;;;;;;;;;;;;;;;;;;;;;;;;;;;;;;42.5;;;12.5;;;;;;;;;;;;45;;;;;;;;;;;;;;;
1998;[14370] D^ORAZIO M. (1998);samp. VBE-71;203122;ETNA/SICILY / VALLE DEL BOVE VOLCANIC SUCCESSION;ELLITICO VOLCANO;37.73;15;37.73;15;;;OUTCROP;;;SUBAERIAL;VOLCANIC ROCK;BENMOREITE;SUBAPHYRIC TRACHYTIC;PIANO DELLA CONCAZZE UNIT;14000;16000;PLEISTOCENE;;;;;;;MINERAL / COMPONENT (INCL. GROUNDMASS);CLINOPYROXENE;;PHENOCRYST;RIM;PRIMARY;;;;;49.87;1.33;;;;4.22;;;;;;;;;;7.75;;;21.94;14.22;0.22;;;;;;;;;;0.41;;;;;;;;;;;;;;;;;;;;;;;;;;;;;;;;;;;;;;;;;;;;;;;;;;;;;;;;;;;;;;;;;;;;;;;;;;;;;;;;;;;;;;;;;;;;;;;;;;;;;;;;;;;;;;;;;;;;;;;;;;;;;;;;;;;;;;;;;;;;;;;;;;;;;;;;;;;;;;;;;;;;;;;;;;;;;;;;;;;;;;;;;;;;;;;;;;;;;;;;;;;;;;;;;;;;;;;;;;;;;;;;;;;;;;;;;;;;;;41.3;;;13;;;;;;;;;;;;45.8;;;;;;;;;;;;;;;
1998;[14370] D^ORAZIO M. (1998);samp. VBE-71;203122;ETNA/SICILY / VALLE DEL BOVE VOLCANIC SUCCESSION;ELLITICO VOLCANO;37.73;15;37.73;15;;;OUTCROP;;;SUBAERIAL;VOLCANIC ROCK;BENMOREITE;SUBAPHYRIC TRACHYTIC;PIANO DELLA CONCAZZE UNIT;14000;16000;PLEISTOCENE;;;;;;;MINERAL / COMPONENT (INCL. GROUNDMASS);CLINOPYROXENE;;PHENOCRYST;CORE;PRIMARY;;;;;50.95;0.98;;;;2.83;;;;;;;;;;7.35;;;22.17;15.09;0.24;;;;;;;;;;0.46;;;;;;;;;;;;;;;;;;;;;;;;;;;;;;;;;;;;;;;;;;;;;;;;;;;;;;;;;;;;;;;;;;;;;;;;;;;;;;;;;;;;;;;;;;;;;;;;;;;;;;;;;;;;;;;;;;;;;;;;;;;;;;;;;;;;;;;;;;;;;;;;;;;;;;;;;;;;;;;;;;;;;;;;;;;;;;;;;;;;;;;;;;;;;;;;;;;;;;;;;;;;;;;;;;;;;;;;;;;;;;;;;;;;;;;;;;;;;;42.8;;;12.1;;;;;;;;;;;;45.2;;;;;;;;;;;;;;;
1998;[14370] D^ORAZIO M. (1998);samp. VBE-71;203122;ETNA/SICILY / VALLE DEL BOVE VOLCANIC SUCCESSION;ELLITICO VOLCANO;37.73;15;37.73;15;;;OUTCROP;;;SUBAERIAL;VOLCANIC ROCK;BENMOREITE;SUBAPHYRIC TRACHYTIC;PIANO DELLA CONCAZZE UNIT;14000;16000;PLEISTOCENE;;;;;;;MINERAL / COMPONENT (INCL. GROUNDMASS);CLINOPYROXENE;;PHENOCRYST;RIM;PRIMARY;;;;;48.94;1.35;;;;4.37;;;;;;;;;;7.96;;;22.32;14.25;0.2;;;;;;;;;;0.48;;;;;;;;;;;;;;;;;;;;;;;;;;;;;;;;;;;;;;;;;;;;;;;;;;;;;;;;;;;;;;;;;;;;;;;;;;;;;;;;;;;;;;;;;;;;;;;;;;;;;;;;;;;;;;;;;;;;;;;;;;;;;;;;;;;;;;;;;;;;;;;;;;;;;;;;;;;;;;;;;;;;;;;;;;;;;;;;;;;;;;;;;;;;;;;;;;;;;;;;;;;;;;;;;;;;;;;;;;;;;;;;;;;;;;;;;;;;;;40.9;;;13.1;;;;;;;;;;;;46;;;;;;;;;;;;;;;
1998;[14370] D^ORAZIO M. (1998);samp. VBE-66;203116;ETNA/SICILY / VALLE DEL BOVE VOLCANIC SUCCESSION;ELLITICO VOLCANO;37.73;15;37.73;15;;;OUTCROP;;;SUBAERIAL;VOLCANIC ROCK;BENMOREITE;SUBAPHYRIC TRACHYTIC;PORTELLA GIUMENTA UNIT;14000;16000;PLEISTOCENE;;;;;;;MINERAL / COMPONENT (INCL. GROUNDMASS);CLINOPYROXENE;;PHENOCRYST;CORE;PRIMARY;;;;;51.92;0.75;;;;2.34;;;;;;;;;;6.81;;;22.41;15.06;0.39;;;;;;;;;;0.55;;;;;;;;;;;;;;;;;;;;;;;;;;;;;;;;;;;;;;;;;;;;;;;;;;;;;;;;;;;;;;;;;;;;;;;;;;;;;;;;;;;;;;;;;;;;;;;;;;;;;;;;;;;;;;;;;;;;;;;;;;;;;;;;;;;;;;;;;;;;;;;;;;;;;;;;;;;;;;;;;;;;;;;;;;;;;;;;;;;;;;;;;;;;;;;;;;;;;;;;;;;;;;;;;;;;;;;;;;;;;;;;;;;;;;;;;;;;;;42.8;;;11.5;;;;;;;;;;;;45.7;;;;;;;;;;;;;;;
1998;[14370] D^ORAZIO M. (1998);samp. VBE-66;203116;ETNA/SICILY / VALLE DEL BOVE VOLCANIC SUCCESSION;ELLITICO VOLCANO;37.73;15;37.73;15;;;OUTCROP;;;SUBAERIAL;VOLCANIC ROCK;BENMOREITE;SUBAPHYRIC TRACHYTIC;PORTELLA GIUMENTA UNIT;14000;16000;PLEISTOCENE;;;;;;;MINERAL / COMPONENT (INCL. GROUNDMASS);CLINOPYROXENE;;PHENOCRYST;RIM;PRIMARY;;;;;52.6;0.71;;;;2.23;;;;;;;;;;7.37;;;21.91;15.14;0.51;;;;;;;;;;0.44;;;;;;;;;;;;;;;;;;;;;;;;;;;;;;;;;;;;;;;;;;;;;;;;;;;;;;;;;;;;;;;;;;;;;;;;;;;;;;;;;;;;;;;;;;;;;;;;;;;;;;;;;;;;;;;;;;;;;;;;;;;;;;;;;;;;;;;;;;;;;;;;;;;;;;;;;;;;;;;;;;;;;;;;;;;;;;;;;;;;;;;;;;;;;;;;;;;;;;;;;;;;;;;;;;;;;;;;;;;;;;;;;;;;;;;;;;;;;;42.9;;;12.6;;;;;;;;;;;;44.6;;;;;;;;;;;;;;;
1998;[14370] D^ORAZIO M. (1998);samp. VBE-66;203116;ETNA/SICILY / VALLE DEL BOVE VOLCANIC SUCCESSION;ELLITICO VOLCANO;37.73;15;37.73;15;;;OUTCROP;;;SUBAERIAL;VOLCANIC ROCK;BENMOREITE;SUBAPHYRIC TRACHYTIC;PORTELLA GIUMENTA UNIT;14000;16000;PLEISTOCENE;;;;;;;MINERAL / COMPONENT (INCL. GROUNDMASS);KAERSUTITE;;PHENOCRYST;CORE;PRIMARY;;;;;41.2;4.72;;;;11.46;;;;;;;;;;11.61;;;11.74;13.72;0.29;;;;;;0.89;EMP (EPMA);;;2.77;;;;;;;;;;;;;;;;;;;;;;;;;;;;;;;;;;;;;;;;;;;;;;;;;;;;;;;;;;;;;;;;;;;;;;;;;;;;;;;;;;;;;;;;;;;;;;;;;;;;;;;;;;;;;;;;;;;;;;;;;;;;;;;;;;;;;;;;;;;;;;;;;;;;;;;;;;;;;;;;;;;;;;;;;;;;;;;;;;;;;;;;;;;;;;;;;;;;;;;;;;;;;;;;;;;;;;;;;;;;;;;;;;;;;;;;;;;;;;;;;;;;;;;;;;;;;;;;;;;;;;;;;;;;
1998;[14370] D^ORAZIO M. (1998);samp. VBE-66;203116;ETNA/SICILY / VALLE DEL BOVE VOLCANIC SUCCESSION;ELLITICO VOLCANO;37.73;15;37.73;15;;;OUTCROP;;;SUBAERIAL;VOLCANIC ROCK;BENMOREITE;SUBAPHYRIC TRACHYTIC;PORTELLA GIUMENTA UNIT;14000;16000;PLEISTOCENE;;;;;;;MINERAL / COMPONENT (INCL. GROUNDMASS);KAERSUTITE;;PHENOCRYST;RIM;PRIMARY;;;;;41.35;4.68;;;;11.55;;;;;;;;;;11.64;;;11.7;13.67;0.27;;;;;;0.92;EMP (EPMA);;;2.77;;;;;;;;;;;;;;;;;;;;;;;;;;;;;;;;;;;;;;;;;;;;;;;;;;;;;;;;;;;;;;;;;;;;;;;;;;;;;;;;;;;;;;;;;;;;;;;;;;;;;;;;;;;;;;;;;;;;;;;;;;;;;;;;;;;;;;;;;;;;;;;;;;;;;;;;;;;;;;;;;;;;;;;;;;;;;;;;;;;;;;;;;;;;;;;;;;;;;;;;;;;;;;;;;;;;;;;;;;;;;;;;;;;;;;;;;;;;;;;;;;;;;;;;;;;;;;;;;;;;;;;;;;;;
1998;[14370] D^ORAZIO M. (1998);samp. VBE-71;203122;ETNA/SICILY / VALLE DEL BOVE VOLCANIC SUCCESSION;ELLITICO VOLCANO;37.73;15;37.73;15;;;OUTCROP;;;SUBAERIAL;VOLCANIC ROCK;BENMOREITE;SUBAPHYRIC TRACHYTIC;PIANO DELLA CONCAZZE UNIT;14000;16000;PLEISTOCENE;;;;;;;MINERAL / COMPONENT (INCL. GROUNDMASS);TITANO-MAGNETITE;;MICROPHENOCRYST;CORE;PRIMARY;;;;;;13.01;;;;4.64;;;;;;;;;;75.28;;;;3.14;0.56;;;;;;;;;;;;;;;;;;;;;;;;;;;;;;;;;;;;;;;;;;;;;;;;;;;;;;;;;;;;;;;;;;;;;;;;;;;;;;;;;;;;;;;;;;;;;;;;;;;;;;;;;;;;;;;;;;;;;;;;;;;;;;;;;;;;;;;;;;;;;;;;;;;;;;;;;;;;;;;;;;;;;;;;;;;;;;;;;;;;;;;;;;;;;;;;;;;;;;;;;;;;;;;;;;;;;;;;;;;;;;;;;;;;;;;;;;;;;;;;;;;;;;;;;;;;;;;;;;;;;;;;;;;;;;;;;;;;;;
1998;[14370] D^ORAZIO M. (1998);samp. VBE-71;203122;ETNA/SICILY / VALLE DEL BOVE VOLCANIC SUCCESSION;ELLITICO VOLCANO;37.73;15;37.73;15;;;OUTCROP;;;SUBAERIAL;VOLCANIC ROCK;BENMOREITE;SUBAPHYRIC TRACHYTIC;PIANO DELLA CONCAZZE UNIT;14000;16000;PLEISTOCENE;;;;;;;MINERAL / COMPONENT (INCL. GROUNDMASS);TITANO-MAGNETITE;;MICROPHENOCRYST;RIM;PRIMARY;;;;;;14.65;;;;4.36;;;;;;;;;;74.7;;;;2.85;0.59;;;;;;;;;;;;;;;;;;;;;;;;;;;;;;;;;;;;;;;;;;;;;;;;;;;;;;;;;;;;;;;;;;;;;;;;;;;;;;;;;;;;;;;;;;;;;;;;;;;;;;;;;;;;;;;;;;;;;;;;;;;;;;;;;;;;;;;;;;;;;;;;;;;;;;;;;;;;;;;;;;;;;;;;;;;;;;;;;;;;;;;;;;;;;;;;;;;;;;;;;;;;;;;;;;;;;;;;;;;;;;;;;;;;;;;;;;;;;;;;;;;;;;;;;;;;;;;;;;;;;;;;;;;;;;;;;;;;;;
1998;[14370] D^ORAZIO M. (1998);samp. VBE-66;203116;ETNA/SICILY / VALLE DEL BOVE VOLCANIC SUCCESSION;ELLITICO VOLCANO;37.73;15;37.73;15;;;OUTCROP;;;SUBAERIAL;VOLCANIC ROCK;BENMOREITE;SUBAPHYRIC TRACHYTIC;PORTELLA GIUMENTA UNIT;14000;16000;PLEISTOCENE;;;;;;;MINERAL / COMPONENT (INCL. GROUNDMASS);TITANO-MAGNETITE;;MICROPHENOCRYST;CORE;PRIMARY;;;;;;11.76;;;;3.33;;;;;;;;;;77.22;;;;4.02;0.71;;;;;;;;;;;;;;;;;;;;;;;;;;;;;;;;;;;;;;;;;;;;;;;;;;;;;;;;;;;;;;;;;;;;;;;;;;;;;;;;;;;;;;;;;;;;;;;;;;;;;;;;;;;;;;;;;;;;;;;;;;;;;;;;;;;;;;;;;;;;;;;;;;;;;;;;;;;;;;;;;;;;;;;;;;;;;;;;;;;;;;;;;;;;;;;;;;;;;;;;;;;;;;;;;;;;;;;;;;;;;;;;;;;;;;;;;;;;;;;;;;;;;;;;;;;;;;;;;;;;;;;;;;;;;;;;;;;;;;
1998;[14370] D^ORAZIO M. (1998);samp. VBE-66;203116;ETNA/SICILY / VALLE DEL BOVE VOLCANIC SUCCESSION;ELLITICO VOLCANO;37.73;15;37.73;15;;;OUTCROP;;;SUBAERIAL;VOLCANIC ROCK;BENMOREITE;SUBAPHYRIC TRACHYTIC;PORTELLA GIUMENTA UNIT;14000;16000;PLEISTOCENE;;;;;;;MINERAL / COMPONENT (INCL. GROUNDMASS);TITANO-MAGNETITE;;MICROPHENOCRYST;RIM;PRIMARY;;;;;;12.51;;;;3.44;;;;;;;;;;75.51;;;;3.22;0.77;;;;;;;;;;;;;;;;;;;;;;;;;;;;;;;;;;;;;;;;;;;;;;;;;;;;;;;;;;;;;;;;;;;;;;;;;;;;;;;;;;;;;;;;;;;;;;;;;;;;;;;;;;;;;;;;;;;;;;;;;;;;;;;;;;;;;;;;;;;;;;;;;;;;;;;;;;;;;;;;;;;;;;;;;;;;;;;;;;;;;;;;;;;;;;;;;;;;;;;;;;;;;;;;;;;;;;;;;;;;;;;;;;;;;;;;;;;;;;;;;;;;;;;;;;;;;;;;;;;;;;;;;;;;;;;;;;;;;;
1998;[14370] D^ORAZIO M. (1998);samp. VBE-66;203116;ETNA/SICILY / VALLE DEL BOVE VOLCANIC SUCCESSION;ELLITICO VOLCANO;37.73;15;37.73;15;;;OUTCROP;;;SUBAERIAL;VOLCANIC ROCK;BENMOREITE;SUBAPHYRIC TRACHYTIC;PORTELLA GIUMENTA UNIT;14000;16000;PLEISTOCENE;;;;;;;MINERAL / COMPONENT (INCL. GROUNDMASS);TITANO-MAGNETITE;;MICROPHENOCRYST;CORE;PRIMARY;;;;;;12.32;;;;4.06;;;;;;;;;;74.27;;;;4.53;0.61;;;;;;;;;;;;;;;;;;;;;;;;;;;;;;;;;;;;;;;;;;;;;;;;;;;;;;;;;;;;;;;;;;;;;;;;;;;;;;;;;;;;;;;;;;;;;;;;;;;;;;;;;;;;;;;;;;;;;;;;;;;;;;;;;;;;;;;;;;;;;;;;;;;;;;;;;;;;;;;;;;;;;;;;;;;;;;;;;;;;;;;;;;;;;;;;;;;;;;;;;;;;;;;;;;;;;;;;;;;;;;;;;;;;;;;;;;;;;;;;;;;;;;;;;;;;;;;;;;;;;;;;;;;;;;;;;;;;;;