Year;CITATION;SAMPLE NAME;UNIQUE_ID;LOCATION;LOCATION COMMENT;LATITUDE (MIN.);LONGITUDE (MIN.);LATITUDE (MAX.);LONGITUDE (MAX.);ELEVATION (MIN.);ELEVATION (MAX.);SAMPLING TECHNIQUE;DRILLING DEPTH (MIN.);DRILLING DEPTH (MAX.);LAND/SEA (SAMPLING);ROCK TYPE;ROCK NAME;ROCK TEXTURE;SAMPLE COMMENT;AGE (MIN.);AGE (MAX.);GEOLOGICAL AGE;GEOLOGICAL AGE PREFIX;ERUPTION DAY;ERUPTION MONTH;ERUPTION YEAR;ALTERATION;ALTERATION TYPE;TYPE OF MATERIAL;MINERAL / COMPONENT;SPOT (MINERAL);CRYSTAL;RIM / CORE (MINERAL GRAINS);PRIMARY/SECONDARY;INCLUSION TYPE;MINERAL (INCLUSION);HOSTMINERAL (INCLUSION);HEATING;SIO2(WT%);TIO2(WT%);ZRO2(WT%);HFO2(WT%);THO2(WT%);AL2O3(WT%);CR2O3(WT%);LA2O3(WT%);CE2O3(WT%);ND2O3(WT%);SM2O3(WT%);V2O3(WT%);NB2O5(WT%);FE2O3T(WT%);FE2O3(WT%);FEOT(WT%);FEO(WT%);FET(WT%);CAO(WT%);MGO(WT%);MNO(WT%);BAO(WT%);SRO(WT%);NIO(WT%);ZNO(WT%);RB2O(WT%);K2O(WT%);;;;NA2O(WT%);P2O5(WT%);AS2O5(WT%);H2O(WT%);H2OP(WT%);H2OM(WT%);CO2(WT%);C(WT%);F(WT%);CL(WT%);OH(WT%);SO3(WT%);S(WT%);LOI(WT%);TI(WT%);CA(WT%);K(WT%);LI(PPM);BE(PPM);B(PPM);F(PPM);P(PPM);S(PPM);CL(PPM);AR40(AT/G);;;;AR40(CCMSTP/G);;;;AR40(MOL/G);;;;AR40(PPB);K(PPM);SC(PPM);;;;TI(PPM);V(PPM);;;;CR(PPM);;;;CO(PPM);;;;NI(PPM);;;;CU(PPM);;;;ZN(PPM);;;;GA(PPM);;;;GE(PPM);AS(PPM);AS(PPB);SE(PPM);RB(PPM);;;;;;SR(PPM);;;;;;Y(PPM);;;;ZR(PPM);;;;NB(PPM);;;;MO(PPM);AG(PPM);CD(PPM);IN(PPM);SN(PPM);SB(PPM): altern. values or methods;;;;TE(PPM);CS(PPM): altern. values or methods;;;;BA(PPM): altern. values or methods;;;;LA(PPM): altern. values or methods;;;;CE(PPM): altern. values or methods;;;;PR(PPM);ND(PPM): altern. values or methods;;;;;;SM(PPM): altern. values or methods;;;;EU(PPM): altern. values or methods;;;;GD(PPM): altern. values or methods;;;;TB(PPM): altern. values or methods;;;;DY(PPM): altern. values or methods;;;;HO(PPM);ER(PPM): altern. values or methods;;;;TM(PPM);YB(PPM): altern. values or methods;;;;LU(PPM);HF(PPM);TA(PPM);W(PPM);RE(PPM);AU(PPM);HG(PPM);HG(PPB);TL(PPM);PB(PPM): altern. values or methods;;;;BI(PPM);PO210_ACT(DPM/G);RA226_ACT(DPM/G);TH(PPM): altern. values or methods;;;;U(PPM): altern. values or methods;;;;ND143_ND144;ND143_ND144_INI;EPSILON_ND;EPSILON_ND_INI;SM147_ND144;SR87_SR86;SR87_SR86_INI;EPSILON_SR_INI;RB87_SR86;PB206_PB204: altern. values or methods;;;;PB206_PB204_INI;PB207_PB204: altern. values or methods;;;;PB207_PB204_INI;PB207_PB206;PB208_PB204: altern. values or methods;;;;PB208_PB204_INI;PB208_PB206;HF176_HF177;LU176_HF177;AR38_AR36;AR40_AR36;AR40_AR36_INI;PB206_U238;PB207_U235;RA226_TH230_ACT;PA231_U235_ACT;TH230_TH232_ACT;TH230_U238_ACT;TH232_PB204;U234_U238_ACT;U235_PB204;U238_PB204;U238_TH232_ACT;D7LI(VS LSVEC);D13C(VS PDB);D18O(PER MIL);D18O(VS SMOW);D18O(VS VSMOW);D34S(VS VCDT);ALBITE(MOL%);ANORTHITE(MOL%);CA OLIVINE(MOL%);CHROMITE(MOL%);ENSTATITE(MOL%);FAYALITE(MOL%);FORSTERITE(MOL%);FERROSILITE(MOL%);HEMATITE(MOL%);HERCYNITE(MOL%);ILMENITE(MOL%);MAGNESIOFERRITE(MOL%);MONTICELLITE(MOL%);MAGNETITE(MOL%);ORTHOCLASE(MOL%);PICROCHROMITE(MOL%);SPINEL(MOL%);TEPHROITE(MOL%);ULVOSPINEL(MOL%);WOLLASTONITE(MOL%);AGE(KA): altern. values or methods;;;;;;AGE(MA): altern. values or methods;;;;;;AGE_PB207_U235(MA);AGE_PB206_U238(MA);
1997;[10245] D^ORAZIO M. (1997);samp. VBE-34;194765;ETNA/SICILY / VALLE DEL BOVE VOLCANIC SUCCESSION;ELLITICO VOLCANO;37.73;15;37.73;15;;;OUTCROP;;;SUBAERIAL;VOLCANIC ROCK;BENMOREITE;;PORTELLA GIUMENTA UNIT;14000;16000;PLEISTOCENE;;;;;;;MINERAL / COMPONENT (INCL. GROUNDMASS);CLINOPYROXENE;;;;PRIMARY;;;;;48.78;2.05;;;;4.21;;;;;;;;;;9.49;;;18.32;14.06;0.53;;;;;;;;;;0.63;;;;;;;;;;;;;;;;;;;;;;;;;;;;;;;;;;;;;;;;;;;;;;;;;;;;;;;;;;;;;;;;;;;;;;;;;;;;;;;;;;;;;;;;;;;;;;;;;;;;;;;;;;;;;;;;;;;;;;;;;;;;;;;;;;;;;;;;;;;;;;;;;;;;;;;;;;;;;;;;;;;;;;;;;;;;;;;;;;;;;;;;;;;;;;;;;;;;;;;;;;;;;;;;;;;;;;;;;;;;;;;;;;;;;;;;;;;;;;42.8;;;17.1;;;;;;;;;;;;40.1;;;;;;;;;;;;;;;
1997;[10245] D^ORAZIO M. (1997);samp. VBE-34;194765;ETNA/SICILY / VALLE DEL BOVE VOLCANIC SUCCESSION;ELLITICO VOLCANO;37.73;15;37.73;15;;;OUTCROP;;;SUBAERIAL;VOLCANIC ROCK;BENMOREITE;;PORTELLA GIUMENTA UNIT;14000;16000;PLEISTOCENE;;;;;;;MINERAL / COMPONENT (INCL. GROUNDMASS);TITANO-MAGNETITE;;;;PRIMARY;;;;;;13.84;;;;3.11;;;;;;;;;;74.3;;;;3.77;0.7;;;;;;;;;;;;;;;;;;;;;;;;;;;;;;;;;;;;;;;;;;;;;;;;;;;;;;;;;;;;;;;;;;;;;;;;;;;;;;;;;;;;;;;;;;;;;;;;;;;;;;;;;;;;;;;;;;;;;;;;;;;;;;;;;;;;;;;;;;;;;;;;;;;;;;;;;;;;;;;;;;;;;;;;;;;;;;;;;;;;;;;;;;;;;;;;;;;;;;;;;;;;;;;;;;;;;;;;;;;;;;;;;;;;;;;;;;;;;;;;;;;;;;;;;;;;;;;;;;;;;;39;;;;;;;;;;;;;;;;
1997;[10245] D^ORAZIO M. (1997);samp. VBE-34;194765;ETNA/SICILY / VALLE DEL BOVE VOLCANIC SUCCESSION;ELLITICO VOLCANO;37.73;15;37.73;15;;;OUTCROP;;;SUBAERIAL;VOLCANIC ROCK;BENMOREITE;;PORTELLA GIUMENTA UNIT;14000;16000;PLEISTOCENE;;;;;;;MINERAL / COMPONENT (INCL. GROUNDMASS);TITANO-MAGNETITE;;;;PRIMARY;;;;;;14.11;;;;3.03;;;;;;;;;;74.04;;;;3.79;0.67;;;;;;;;;;;;;;;;;;;;;;;;;;;;;;;;;;;;;;;;;;;;;;;;;;;;;;;;;;;;;;;;;;;;;;;;;;;;;;;;;;;;;;;;;;;;;;;;;;;;;;;;;;;;;;;;;;;;;;;;;;;;;;;;;;;;;;;;;;;;;;;;;;;;;;;;;;;;;;;;;;;;;;;;;;;;;;;;;;;;;;;;;;;;;;;;;;;;;;;;;;;;;;;;;;;;;;;;;;;;;;;;;;;;;;;;;;;;;;;;;;;;;;;;;;;;;;;;;;;;;;39.8;;;;;;;;;;;;;;;;
1997;[10245] D^ORAZIO M. (1997);samp. VBE-34;194765;ETNA/SICILY / VALLE DEL BOVE VOLCANIC SUCCESSION;ELLITICO VOLCANO;37.73;15;37.73;15;;;OUTCROP;;;SUBAERIAL;VOLCANIC ROCK;BENMOREITE;;PORTELLA GIUMENTA UNIT;14000;16000;PLEISTOCENE;;;;;;;MINERAL / COMPONENT (INCL. GROUNDMASS);PLAGIOCLASE;;;;PRIMARY;;;;;58.37;;;;;25.45;;;;;;;;0.67;;;;;7.98;;;;;;;;0.59;EMP (EPMA);;;6.49;;;;;;;;;;;;;;;;;;;;;;;;;;;;;;;;;;;;;;;;;;;;;;;;;;;;;;;;;;;;;;;;;;;;;;;;;;;;;;;;;;;;;;;;;;;;;;;;;;;;;;;;;;;;;;;;;;;;;;;;;;;;;;;;;;;;;;;;;;;;;;;;;;;;;;;;;;;;;;;;;;;;;;;;;;;;;;;;;;;;;;;;;;;;;;;;;;;;;;;;;;;;;;;;;;;;;;;;;;;;;;;;;;;;;;;;;;57.51;39.07;;;;;;;;;;;;;3.42;;;;;;;;;;;;;;;;;;;;
1997;[10245] D^ORAZIO M. (1997);samp. VBE-34;194765;ETNA/SICILY / VALLE DEL BOVE VOLCANIC SUCCESSION;ELLITICO VOLCANO;37.73;15;37.73;15;;;OUTCROP;;;SUBAERIAL;VOLCANIC ROCK;BENMOREITE;;PORTELLA GIUMENTA UNIT;14000;16000;PLEISTOCENE;;;;;;;MINERAL / COMPONENT (INCL. GROUNDMASS);PLAGIOCLASE;;;;PRIMARY;;;;;61.74;;;;;22.49;;;;;;;;1.33;;;;;5.77;;;;;;;;0.87;EMP (EPMA);;;7.09;;;;;;;;;;;;;;;;;;;;;;;;;;;;;;;;;;;;;;;;;;;;;;;;;;;;;;;;;;;;;;;;;;;;;;;;;;;;;;;;;;;;;;;;;;;;;;;;;;;;;;;;;;;;;;;;;;;;;;;;;;;;;;;;;;;;;;;;;;;;;;;;;;;;;;;;;;;;;;;;;;;;;;;;;;;;;;;;;;;;;;;;;;;;;;;;;;;;;;;;;;;;;;;;;;;;;;;;;;;;;;;;;;;;;;;;;;65.36;29.37;;;;;;;;;;;;;5.27;;;;;;;;;;;;;;;;;;;;
1997;[10245] D^ORAZIO M. (1997);samp. VBE-34;194765;ETNA/SICILY / VALLE DEL BOVE VOLCANIC SUCCESSION;ELLITICO VOLCANO;37.73;15;37.73;15;;;OUTCROP;;;SUBAERIAL;VOLCANIC ROCK;BENMOREITE;;PORTELLA GIUMENTA UNIT;14000;16000;PLEISTOCENE;;;;;;;MINERAL / COMPONENT (INCL. GROUNDMASS);PLAGIOCLASE;;;;PRIMARY;;;;;59.11;;;;;25.02;;;;;;;;0.95;;;;;7.44;;;;;;;;0.57;EMP (EPMA);;;6.83;;;;;;;;;;;;;;;;;;;;;;;;;;;;;;;;;;;;;;;;;;;;;;;;;;;;;;;;;;;;;;;;;;;;;;;;;;;;;;;;;;;;;;;;;;;;;;;;;;;;;;;;;;;;;;;;;;;;;;;;;;;;;;;;;;;;;;;;;;;;;;;;;;;;;;;;;;;;;;;;;;;;;;;;;;;;;;;;;;;;;;;;;;;;;;;;;;;;;;;;;;;;;;;;;;;;;;;;;;;;;;;;;;;;;;;;;;60.39;36.32;;;;;;;;;;;;;3.29;;;;;;;;;;;;;;;;;;;;
2007;[10272] DAVIS A. S. (2007);samp. T429R17;;CONTINENTAL MARGIN OFFSHORE CALIFORNIA SEAMOUNTS / DAVIDSON;;35.5;-122.666;35.83;-123;;;DREDGE;;;SUBAQUATIC;VOLCANIC ROCK;BENMOREITE;;GLASS;;;;;;;;;;VOLCANIC GLASS;;;;;;;;;;58.6;1.25;;;;19.1;;;;;;;;;;4.5;;;2.31;1.27;0.13;;;;;;3.92;XRF;;;4.66;0.62;;;;;;;;;;;;;;;;;;;;;;;;;;;;;;;;;;;;;;;;;;;;;;;;;;;;;;;;;;;;;;;;;;;;;;;;;;;;;;;;;;;;;;;;;;;;;;;;;;;;;;;;;;;;;;;;;;;;;;;;;;;;;;;;;;;;;;;;;;;;;;;;;;;;;;;;;;;;;;;;;;;;;;;;;;;;;;;;;;;;;;;;;;;;;;;;;;;;;;;;;;;;;;;;;;;;;;;;;;;;;;;;;;;;;;;;;;;;;;;;;;;;;;;;;;;;;;;;;;;;;;;;;;;
1990;[10315] LE MASURIER W. E. (1990);samp. 25661;;ANTARCTICA / WEST ANTARCTIC RIFT SYSTEM / ROSS SEA RIFT / THE PLEIADES VOLCANIC COMPLEX;MOUNT PLEIONES, TRANSANTARCTIC MOUNTAINS, MELBOURNE VOLCANIC PROVINCE, MCMURDO VOLCANIC GROUP;-72.75;164.5233;-72.75;164.5233;;;OUTCROP;;;SUBAERIAL;VOLCANIC ROCK;BENMOREITE;;;;1000000;NEOGENE;;;;;;;WHOLE ROCK;;;;;;;;;;55.12;1.29;;;;17.39;;;;;;;;;3.07;;5.66;;4.11;1.65;0.23;;;;;;3.52;XRF;;;7.31;0.59;;;;;;;;;;;;;;;;;;;;;;;;;;;;;;;;;;;;;;;;;;6;XRF;;;5;XRF;;;;;;;5;XRF;;;13;XRF;;;110;XRF;;;;;;;;;;;88;XRF;;;;;643;XRF;;;;;;;;;;;;;;;;;;;;;;;;;;;;;;;899;XRF;;;;;;;;;;;;;;;;;;;;;;;;;;;;;;;;;;;;;;;;;;;;;;;;;;;;;;;;;;;;;;;;;;;;;;;;;;;;;;;;;;;;;;;;;;;;;;;;;;;;;;;;;;;;;;;;;;;;;;;;;;;;;;;;;;;;;;;;;;;;;;;;;;;;;;;;;;
1990;[10315] LE MASURIER W. E. (1990);samp. 82022;;ANTARCTICA / WEST ANTARCTIC RIFT SYSTEM / ROSS SEA RIFT / VULCAN HILLS;SOUTH VULCAN HILLS, TRANSANTARCTIC MOUNTAINS, MELBOURNE VOLCANIC PROVINCE, MCMURDO VOLCANIC GROUP;-73.65;163.67;-73.65;163.67;;;OUTCROP;;;SUBAERIAL;VOLCANIC ROCK;BENMOREITE;PORPHYRITIC;DIKE;;;CENOZOIC;;;;;;;WHOLE ROCK;;;;;;;;;;52.96;1.63;;;;16;;;;;;;;8.04;;;;;5.5;2.1;0.14;;;;;;2.61;XRF;;;4.05;0.68;;;;;;;;;;;;5.75;;;;;;;;;;;;;;;;;;;;;;;;;;;;;;;;;;;;;;;;;;0;XRF;;;0;XRF;;;107;XRF;;;22;XRF;;;;;;;82;XRF;;;;;583;XRF;;;;;37;XRF;;;311;XRF;;;60;XRF;;;;;;;;;;;;;;;;;;;;;;;;;;;;;;;;;;;;;;;;;;;;;;;;;;;;;;;;;;;;;;;;;;;;;;;;;;;12;XRF;;;;;;11;XRF;;;;;;;;;;;;;;;;;;;;;;;;;;;;;;;;;;;;;;;;;;;;;;;;;;;;;;;;;;;;;;;;;;;;;;;;;;;;;;;;;;;;;;;;;
1990;[10315] LE MASURIER W. E. (1990);samp. 82050;;ANTARCTICA / WEST ANTARCTIC RIFT SYSTEM / ROSS SEA RIFT / VULCAN HILLS;NORTH VULCAN HILLS, TRANSANTARCTIC MOUNTAINS, MELBOURNE VOLCANIC PROVINCE, MCMURDO VOLCANIC GROUP;-73.65;163.67;-73.65;163.67;;;OUTCROP;;;SUBAERIAL;VOLCANIC ROCK;BENMOREITE;FINE-GRAINED;DIKE;;;CENOZOIC;;;;;;;WHOLE ROCK;;;;;;;;;;58.8;1.26;;;;15.64;;;;;;;;8.2;;;;;3.66;1.71;0.19;;;;;;3.65;XRF;;;4.84;0.55;;;;;;;;;;;;1.08;;;;;;;;;;;;;;;;;;;;;;;;;;;;;;;;;;;;;;;;;;0;XRF;;;12;XRF;;;138;XRF;;;26;XRF;;;;;;;103;XRF;;;;;537;XRF;;;;;47;XRF;;;486;XRF;;;94;XRF;;;;;;;;;;;;;;;;;;;;;;;;;;;;;;;;;;;;;;;;;;;;;;;;;;;;;;;;;;;;;;;;;;;;;;;;;;;13;XRF;;;;;;12;XRF;;;;;;;;;;;;;;;;;;;;;;;;;;;;;;;;;;;;;;;;;;;;;;;;;;;;;;;;;;;;;;;;;;;;;;;;;;;;;;;;;;;;;;;;;
1990;[10315] LE MASURIER W. E. (1990);samp. 3;;ROSS ISLAND / ROSS ISLAND / MOUNT BIRD;EREBUS VOLCANIC PROVINCE, MCMURDO VOLCANIC GROUP;-77.67;168;-77.67;168;;;OUTCROP;;;SUBAERIAL;VOLCANIC ROCK;BENMOREITE, NEPHELINE;;;3000000;5000000;NEOGENE;;;;;;;WHOLE ROCK;;;;;;;;;;52.54;1.44;;;;19.41;;;;;;;;;2.9;;5.31;;4.6;1.91;0.23;;;;;;3.49;NOT;;;7.5;0.26;;0.24;;;0.2;;;;;;;;;;;;;;;;;;;;;;;;;;;;;;;;;;;;;;;;;;;;;;;;;;;;;;;;;;;;;;;;;;;;;;;;;;;;;;;;;;;;;;;;;;;;;;;;;;;;;;;;;;;;;;;;;;;;;;;;;;;;;;;;;;;;;;;;;;;;;;;;;;;;;;;;;;;;;;;;;;;;;;;;;;;;;;;;;;;;;;;;;;;;;;;;;;;;;;;;;;;;;;;;;;;;;;;;;;;;;;;;;;;;;;;;;;;;;;;;;;;;;;;;;;;;;;;;;;;;;;
1990;[10315] LE MASURIER W. E. (1990);samp. 4;;ROSS ISLAND / ROSS ISLAND / MOUNT TERROR;INACCESSIBLE ISLAND, DELLBRIDGE ISLANDS, MCMURDO VOLCANIC GROUP;-77.9;166.2;-77.9;166.2;;;OUTCROP;;;SUBAERIAL;VOLCANIC ROCK;BENMOREITE, NEPHELINE;;;;1000000;NEOGENE;;;;;;;WHOLE ROCK;;;;;;;;;;50.77;1.95;;;;18.91;;;;;;;;;;7.78;;;5.55;2.2;0.22;;;;;;3.38;XRF;;;6.9;0.93;;;;;;;;;;;;0.17;;;;;;;;;;;;;;;;;;;;;;;;;5.09;NOT;;;;37;NOT;;;0;NOT;;;;;;;95;NOT;;;0.83;NOT;;;118;NOT;;;4.11;NOT;;;;;;;0;NOT;;;;;1188;NOT;;;;;3.95;NOT;;;608;NOT;;;0.59;NOT;;;;;;;;72;NOT;;;;;;;;909;NOT;;;12.57;NOT;;;218.1;NOT;;;;192;NOT;;;;;13.89;NOT;;;21;NOT;;;;;;;1.7;NOT;;;;;;;;;;;;;;;;;107.9;24;11.3;47;;;;;;7;NOT;;;;;;13.9;NOT;;;4.7;NOT;;;;;;;;;;;;;;;;;;;;;;;;;;;;;;;;;;;;;;;;;;;;;;;;;;;;;;;;;;;;;;;;;;;;;;;;;;;;;;;;;;;;;
1990;[10315] LE MASURIER W. E. (1990);samp. 5;;ROSS ISLAND / ROSS ISLAND / MOUNT TERROR;COAST OF ROSS ISLAND, MCMURDO VOLCANIC GROUP;-77.4;167.6;-77.4;167.6;;;OUTCROP;;;SUBAERIAL;VOLCANIC ROCK;BENMOREITE;;;;1000000;NEOGENE;;;;;;;WHOLE ROCK;;;;;;;;;;55.81;1.07;;;;18.03;;;;;;;;;;7.71;;;3.75;1.35;0.3;;;;;;3.5;XRF;;;7.06;0.41;;;;;;;;;;;;-0.22;;;;;;;;;;;;;;;;;;;;;;;;;2.07;NOT;;;;10;NOT;;;0;NOT;;;;;;;88;NOT;;;0.73;NOT;;;122;NOT;;;3.83;NOT;;;;;;;6;NOT;;;;;923;NOT;;;;;3.93;NOT;;;634;NOT;;;0.61;NOT;;;;;;;;81;NOT;;;;;;;;1109;NOT;;;13.92;NOT;;;228.4;NOT;;;;193;NOT;;;;;12.22;NOT;;;10;NOT;;;;;;;1.44;NOT;;;;;;;;;;;;;;;;;113;25;11.43;43;;;;;;7;NOT;;;;;;14.3;NOT;;;4.8;NOT;;;;;;;;;;;;;;;;;;;;;;;;;;;;;;;;;;;;;;;;;;;;;;;;;;;;;;;;;;;;;;;;;;;;;;;;;;;;;;;;;;;;;
1990;[10315] LE MASURIER W. E. (1990);samp. 24089;;ANTARCTICA / WEST ANTARCTIC RIFT SYSTEM / ROSS SEA RIFT;RAINBOW RIDGE, BROWN PENINSULA, SOUTHERN VICTORIA LAND, MCMURDO VOLCANIC GROUP;-78;165;-78.25;165.5;;;OUTCROP;;;SUBAERIAL;VOLCANIC ROCK;BENMOREITE, NEPHELINE;;;5000000;11000000;NEOGENE;;;;;;;WHOLE ROCK;;;;;;;;;;52.6;1.38;;;;20.02;;;;;;;;6.44;;;;;4.46;2.1;0.19;;;;;;4.04;NOT;;;7.77;0.44;;;;;;;;;;;;0.56;;;;;;;;;;;;;;;;;;;;;;;;;;;;;;59;NOT;;;53;NOT;;;;;;;18;NOT;;;16;NOT;;;107;NOT;;;;;;;;;;;110;NOT;;;;;896;NOT;;;;;;;;;;;;;;;;;;;;;;;;;;;1.8;NOT;;;638;NOT;;;125;NOT;;;235;NOT;;;21;66;NOT;;;;;10.5;NOT;;;3.6;NOT;;;9;NOT;;;1.2;NOT;;;6.4;NOT;;;1.2;3.6;NOT;;;;4.2;NOT;;;;10;;;;;;;;20;NOT;;;;;;23;NOT;;;7.3;NOT;;;;;;;;;;;;;;;;;;;;;;;;;;;;;;;;;;;;;;;;;;;;;;;;;;;;;;;;;;;;;;;;;;;;;;;;;;;;;;;;;;;;;
1990;[10315] LE MASURIER W. E. (1990);samp. AW84718;;ANTARCTICA / WEST ANTARCTIC RIFT SYSTEM / ROSS SEA RIFT / MOUNT DISCOVERY;NORTH SIDE OF MOUNT DISCOVERY, SOUTHERN VICTORIA LAND, MCMURDO VOLCANIC GROUP;-78.2;164.67;-78.42;165.67;1900;1900;OUTCROP;;;SUBAERIAL;VOLCANIC ROCK;BENMOREITE, NEPHELINE;;FLOW;;6000000;NEOGENE;;;;;;;WHOLE ROCK;;;;;;;;;;51.46;1.83;;;;18.92;;;;;;;;8.07;;;;;4.83;2.25;0.23;;;;;;3.68;XRF;;;7.07;0.92;;;;;;;;;;;;0.1;;;;;;;;;;;;;;;;;;;;;;;;;3.6;XRF;3.6;INAA;;41;XRF;;;0;XRF;1.1;INAA;;;;;5;XRF;;;19;XRF;;;89;XRF;;;24;XRF;;;;;;;76;XRF;75;INAA;;;1614;XRF;;;;;43;XRF;;;641;XRF;;;197;XRF;;;;;;;;0.2;XRF;0.2;INAA;;0.83;XRF;0.83;INAA;1063;XRF;972;INAA;100;INAA;;;210;INAA;;;;90.4;INAA;;;;;14.1;XRF;14.1;INAA;4.58;INAA;;;;;;;1.6;INAA;;;;;;;;;;;;;3.62;INAA;;;0.53;12.5;11.2;;;;;;;6;XRF;;;;;;12;XRF;13.6;INAA;4.3;INAA;;;;;;;;;;;;;;;;;;;;;;;;;;;;;;;;;;;;;;;;;;;;;;;;;;;;;;;;;;;;;;;;;;;;;;;;;;;;;;;;;;;;;
1990;[10315] LE MASURIER W. E. (1990);samp. 85-35C;;ANTARCTICA / WEST ANTARCTIC RIFT SYSTEM / MARIE BYRD LAND / MOUNT MURPHY;;-75.33;-110.75;-75.33;-110.75;1900;1900;OUTCROP;;;SUBAERIAL;VOLCANIC ROCK;BENMOREITE;;;;;MIOCENE;UPPER;;;;;;WHOLE ROCK;;;;;;;;;;55;1.41;;;;18.02;;;;;;;;;3.64;;4.82;;5.5;1.54;0.24;;;;;;2.37;XRF;;;5.9;0.52;;;;0.29;;;0.03;;;;;;;;;;;;;;;;;;;;;;;;;;;;;;;;;;;54;XRF;;;4;XRF;;;10;XRF;;;5;XRF;;;12;XRF;;;86;XRF;;;24;XRF;;;;;;;37;XRF;;;;;648;XRF;;;;;40;XRF;;;285;XRF;;;80;XRF;;;;;;;;;;;;;;;;;1087;XRF;;;68;XRF;;;123;XRF;;;;;;;;;;;;;;;;;;;;;;;;;;;;;;;;;;;;;;;;;;;;;;;;;7;XRF;;;;;;5;XRF;;;;;;;;;;;;;;;;;;;;;;;;;;;;;;;;;;;;;;;;;;;;;;;;;;;;;;;;;;;;;;;;;;;;;;;;;;;;;;;;;;;;;;;;;
1990;[10315] LE MASURIER W. E. (1990);samp. 85-40A;;ANTARCTICA / WEST ANTARCTIC RIFT SYSTEM / MARIE BYRD LAND / MOUNT MURPHY;;-75.33;-110.75;-75.33;-110.75;1900;1900;OUTCROP;;;SUBAERIAL;VOLCANIC ROCK;BENMOREITE;;;;;MIOCENE;UPPER;;;;;;WHOLE ROCK;;;;;;;;;;55.52;1.38;;;;18.29;;;;;;;;;5.31;;3.12;;5.48;1.42;0.21;;;;;;2.38;XRF;;;5.97;0.67;;;;;;;0.06;;;;;;;;;;;;;;;;;;;;;;;;;;;;;;;;;;;56;XRF;;;;;;;5;XRF;;;4;XRF;;;18;XRF;;;72;XRF;;;23;XRF;;;;;;;41;XRF;;;;;661;XRF;;;;;38;XRF;;;310;XRF;;;74;XRF;;;;;;;;;;;;;;;;;1173;XRF;;;61;XRF;;;115;XRF;;;;;;;;;;;;;;;;;;;;;;;;;;;;;;;;;;;;;;;;;;;;;;;;;7;XRF;;;;;;11;XRF;;;;;;;;;;;;;;;;;;;;;;;;;;;;;;;;;;;;;;;;;;;;;;;;;;;;;;;;;;;;;;;;;;;;;;;;;;;;;;;;;;;;;;;;;
1990;[10315] LE MASURIER W. E. (1990);samp. 75;;ANTARCTICA / WEST ANTARCTIC RIFT SYSTEM / MARIE BYRD LAND / TONEY MOUNTAIN;;-75.7997;-115.7998;-75.7997;-115.7998;;;OUTCROP;;;SUBAERIAL;VOLCANIC ROCK;BENMOREITE;;;;;PLEISTOCENE;;;;;;;WHOLE ROCK;;;;;;;;;;57.19;1.22;;;;17.24;;;;;;;;;3.78;;4.53;;4.1;1.69;0.19;;;;;;3.76;WET;;;5.25;0.52;;;0.25;0.01;0;;0.1;;;;;;;;2.56;;;;;;;;;;;;;;;;;;;;;;;;;;;66;XRF;;;0;XRF;;;21;XRF;;;4;XRF;;;25;XRF;;;109;XRF;;;34;XRF;;;;;;;84;XRF;;;;;314;XRF;;;;;79;XRF;;;550;XRF;;;94;XRF;;;;;;;;;;;;;;;;;1328;XRF;;;83;XRF;;;173;XRF;;;;;;;;;;;;;;;;;;;;;;;;;;;;;;;;;;;;;;;;;;;;;;;;;7;XRF;;;;;;14;XRF;;;5;XRF;;;;;;;;;;;;;;;;;;;;;;;;;;;;;;;;;;;;;;;;;;;;;;;;;;;;;;;;;;;;;;;;;;;;;;;;;;;;;0.5;K-AR;;;;;;;
1990;[10315] LE MASURIER W. E. (1990);samp. 75;;ANTARCTICA / WEST ANTARCTIC RIFT SYSTEM / MARIE BYRD LAND / TONEY MOUNTAIN;;-75.7997;-115.7998;-75.7997;-115.7998;;;OUTCROP;;;SUBAERIAL;VOLCANIC ROCK;BENMOREITE;;;;;PLEISTOCENE;;;;;;;MINERAL / COMPONENT (INCL. GROUNDMASS);FELDSPAR;;PHENOCRYST;CORE;PRIMARY;;;;;64.25;0.24;;;;22.01;;;;;;;;;;;;;2.76;;;;;;;;3.55;EMP (EPMA);;;7.07;;;;;;;;;;;;;;;;;;;;;;;;;;;;;;;;;;;;;;;;;;;;;;;;;;;;;;;;;;;;;;;;;;;;;;;;;;;;;;;;;;;;;;;;;;;;;;;;;;;;;;;;;;;;;;;;;;;;;;;;;;;;;;;;;;;;;;;;;;;;;;;;;;;;;;;;;;;;;;;;;;;;;;;;;;;;;;;;;;;;;;;;;;;;;;;;;;;;;;;;;;;;;;;;;;;;;;;;;;;;;;;;;;;;;;;;;;;;;;;;;;;;;;;;;;;;;;;;;;;;;;;;;;;;
1990;[10315] LE MASURIER W. E. (1990);samp. 75;;ANTARCTICA / WEST ANTARCTIC RIFT SYSTEM / MARIE BYRD LAND / TONEY MOUNTAIN;;-75.7997;-115.7998;-75.7997;-115.7998;;;OUTCROP;;;SUBAERIAL;VOLCANIC ROCK;BENMOREITE;;;;;PLEISTOCENE;;;;;;;MINERAL / COMPONENT (INCL. GROUNDMASS);FELDSPAR;;PHENOCRYST;RIM;PRIMARY;;;;;66.25;;;;;20.17;;;;;;;;;;;;;1.2;;;;;;;;5.12;EMP (EPMA);;;7.21;;;;;;;;;;;;;;;;;;;;;;;;;;;;;;;;;;;;;;;;;;;;;;;;;;;;;;;;;;;;;;;;;;;;;;;;;;;;;;;;;;;;;;;;;;;;;;;;;;;;;;;;;;;;;;;;;;;;;;;;;;;;;;;;;;;;;;;;;;;;;;;;;;;;;;;;;;;;;;;;;;;;;;;;;;;;;;;;;;;;;;;;;;;;;;;;;;;;;;;;;;;;;;;;;;;;;;;;;;;;;;;;;;;;;;;;;;;;;;;;;;;;;;;;;;;;;;;;;;;;;;;;;;;;
1990;[10315] LE MASURIER W. E. (1990);samp. 75;;ANTARCTICA / WEST ANTARCTIC RIFT SYSTEM / MARIE BYRD LAND / TONEY MOUNTAIN;;-75.7997;-115.7998;-75.7997;-115.7998;;;OUTCROP;;;SUBAERIAL;VOLCANIC ROCK;BENMOREITE;;;;;PLEISTOCENE;;;;;;;MINERAL / COMPONENT (INCL. GROUNDMASS);FELDSPAR;;GROUNDMASS;;PRIMARY;;;;;65.07;;;;;21.25;;;;;;;;;;;;;2.49;;;;;;;;3.09;EMP (EPMA);;;7.99;;;;;;;;;;;;;;;;;;;;;;;;;;;;;;;;;;;;;;;;;;;;;;;;;;;;;;;;;;;;;;;;;;;;;;;;;;;;;;;;;;;;;;;;;;;;;;;;;;;;;;;;;;;;;;;;;;;;;;;;;;;;;;;;;;;;;;;;;;;;;;;;;;;;;;;;;;;;;;;;;;;;;;;;;;;;;;;;;;;;;;;;;;;;;;;;;;;;;;;;;;;;;;;;;;;;;;;;;;;;;;;;;;;;;;;;;;;;;;;;;;;;;;;;;;;;;;;;;;;;;;;;;;;;
1990;[10315] LE MASURIER W. E. (1990);samp. 75;;ANTARCTICA / WEST ANTARCTIC RIFT SYSTEM / MARIE BYRD LAND / TONEY MOUNTAIN;;-75.7997;-115.7998;-75.7997;-115.7998;;;OUTCROP;;;SUBAERIAL;VOLCANIC ROCK;BENMOREITE;;;;;PLEISTOCENE;;;;;;;MINERAL / COMPONENT (INCL. GROUNDMASS);OLIVINE;;PHENOCRYST;CORE;PRIMARY;;;;;32.17;;;;;;;;;;;;;;;51.45;;;0.33;14.12;1.88;;;;;;;;;;;;;;;;;;;;;;;;;;;;;;;;;;;;;;;;;;;;;;;;;;;;;;;;;;;;;;;;;;;;;;;;;;;;;;;;;;;;;;;;;;;;;;;;;;;;;;;;;;;;;;;;;;;;;;;;;;;;;;;;;;;;;;;;;;;;;;;;;;;;;;;;;;;;;;;;;;;;;;;;;;;;;;;;;;;;;;;;;;;;;;;;;;;;;;;;;;;;;;;;;;;;;;;;;;;;;;;;;;;;;;;;;;;;;;;;;;;;;;;;;;;;;;;;;;;;;;;;;;;;;;;;;;;;;;
1990;[10315] LE MASURIER W. E. (1990);samp. 75;;ANTARCTICA / WEST ANTARCTIC RIFT SYSTEM / MARIE BYRD LAND / TONEY MOUNTAIN;;-75.7997;-115.7998;-75.7997;-115.7998;;;OUTCROP;;;SUBAERIAL;VOLCANIC ROCK;BENMOREITE;;;;;PLEISTOCENE;;;;;;;MINERAL / COMPONENT (INCL. GROUNDMASS);OLIVINE;;PHENOCRYST;RIM;PRIMARY;;;;;32.83;;;;;;;;;;;;;;;52.51;;;0.17;12.98;2.03;;;;;;;;;;;;;;;;;;;;;;;;;;;;;;;;;;;;;;;;;;;;;;;;;;;;;;;;;;;;;;;;;;;;;;;;;;;;;;;;;;;;;;;;;;;;;;;;;;;;;;;;;;;;;;;;;;;;;;;;;;;;;;;;;;;;;;;;;;;;;;;;;;;;;;;;;;;;;;;;;;;;;;;;;;;;;;;;;;;;;;;;;;;;;;;;;;;;;;;;;;;;;;;;;;;;;;;;;;;;;;;;;;;;;;;;;;;;;;;;;;;;;;;;;;;;;;;;;;;;;;;;;;;;;;;;;;;;;;
1990;[10315] LE MASURIER W. E. (1990);samp. 75;;ANTARCTICA / WEST ANTARCTIC RIFT SYSTEM / MARIE BYRD LAND / TONEY MOUNTAIN;;-75.7997;-115.7998;-75.7997;-115.7998;;;OUTCROP;;;SUBAERIAL;VOLCANIC ROCK;BENMOREITE;;;;;PLEISTOCENE;;;;;;;MINERAL / COMPONENT (INCL. GROUNDMASS);CLINOPYROXENE;;GROUNDMASS;;PRIMARY;;;;;51.15;0.45;;;;0.93;;;;;;;;;;15.18;;;21.8;10.05;0.61;;;;;;;;;;0.29;;;;;;;;;;;;;;;;;;;;;;;;;;;;;;;;;;;;;;;;;;;;;;;;;;;;;;;;;;;;;;;;;;;;;;;;;;;;;;;;;;;;;;;;;;;;;;;;;;;;;;;;;;;;;;;;;;;;;;;;;;;;;;;;;;;;;;;;;;;;;;;;;;;;;;;;;;;;;;;;;;;;;;;;;;;;;;;;;;;;;;;;;;;;;;;;;;;;;;;;;;;;;;;;;;;;;;;;;;;;;;;;;;;;;;;;;;;;;;;;;;;;;;;;;;;;;;;;;;;;;;;;;;;;