Year;CITATION;SAMPLE NAME;UNIQUE_ID;LOCATION;LOCATION COMMENT;LATITUDE (MIN.);LONGITUDE (MIN.);LATITUDE (MAX.);LONGITUDE (MAX.);ELEVATION (MIN.);ELEVATION (MAX.);SAMPLING TECHNIQUE;DRILLING DEPTH (MIN.);DRILLING DEPTH (MAX.);LAND/SEA (SAMPLING);ROCK TYPE;ROCK NAME;ROCK TEXTURE;SAMPLE COMMENT;AGE (MIN.);AGE (MAX.);GEOLOGICAL AGE;GEOLOGICAL AGE PREFIX;ERUPTION DAY;ERUPTION MONTH;ERUPTION YEAR;ALTERATION;ALTERATION TYPE;TYPE OF MATERIAL;MINERAL / COMPONENT;SPOT (MINERAL);CRYSTAL;RIM / CORE (MINERAL GRAINS);PRIMARY/SECONDARY;INCLUSION TYPE;MINERAL (INCLUSION);HOSTMINERAL (INCLUSION);HEATING;SIO2(WT%);TIO2(WT%);ZRO2(WT%);HFO2(WT%);THO2(WT%);AL2O3(WT%);CR2O3(WT%);LA2O3(WT%);CE2O3(WT%);ND2O3(WT%);SM2O3(WT%);V2O3(WT%);NB2O5(WT%);FE2O3T(WT%);FE2O3(WT%);FEOT(WT%);FEO(WT%);FET(WT%);CAO(WT%);MGO(WT%);MNO(WT%);BAO(WT%);SRO(WT%);NIO(WT%);ZNO(WT%);RB2O(WT%);K2O(WT%);;;;NA2O(WT%);P2O5(WT%);AS2O5(WT%);H2O(WT%);H2OP(WT%);H2OM(WT%);CO2(WT%);C(WT%);F(WT%);CL(WT%);OH(WT%);SO3(WT%);S(WT%);LOI(WT%);TI(WT%);CA(WT%);K(WT%);LI(PPM);BE(PPM);B(PPM);F(PPM);P(PPM);S(PPM);CL(PPM);AR40(AT/G);;;;AR40(CCMSTP/G);;;;AR40(MOL/G);;;;AR40(PPB);K(PPM);SC(PPM);;;;TI(PPM);V(PPM);;;;CR(PPM);;;;CO(PPM);;;;NI(PPM);;;;CU(PPM);;;;ZN(PPM);;;;GA(PPM);;;;GE(PPM);AS(PPM);AS(PPB);SE(PPM);RB(PPM);;;;;;SR(PPM);;;;;;Y(PPM);;;;ZR(PPM);;;;NB(PPM);;;;MO(PPM);AG(PPM);CD(PPM);IN(PPM);SN(PPM);SB(PPM): altern. values or methods;;;;TE(PPM);CS(PPM): altern. values or methods;;;;BA(PPM): altern. values or methods;;;;LA(PPM): altern. values or methods;;;;CE(PPM): altern. values or methods;;;;PR(PPM);ND(PPM): altern. values or methods;;;;;;SM(PPM): altern. values or methods;;;;EU(PPM): altern. values or methods;;;;GD(PPM): altern. values or methods;;;;TB(PPM): altern. values or methods;;;;DY(PPM): altern. values or methods;;;;HO(PPM);ER(PPM): altern. values or methods;;;;TM(PPM);YB(PPM): altern. values or methods;;;;LU(PPM);HF(PPM);TA(PPM);W(PPM);RE(PPM);AU(PPM);HG(PPM);HG(PPB);TL(PPM);PB(PPM): altern. values or methods;;;;BI(PPM);PO210_ACT(DPM/G);RA226_ACT(DPM/G);TH(PPM): altern. values or methods;;;;U(PPM): altern. values or methods;;;;ND143_ND144;ND143_ND144_INI;EPSILON_ND;EPSILON_ND_INI;SM147_ND144;SR87_SR86;SR87_SR86_INI;EPSILON_SR_INI;RB87_SR86;PB206_PB204: altern. values or methods;;;;PB206_PB204_INI;PB207_PB204: altern. values or methods;;;;PB207_PB204_INI;PB207_PB206;PB208_PB204: altern. values or methods;;;;PB208_PB204_INI;PB208_PB206;HF176_HF177;LU176_HF177;AR38_AR36;AR40_AR36;AR40_AR36_INI;PB206_U238;PB207_U235;RA226_TH230_ACT;PA231_U235_ACT;TH230_TH232_ACT;TH230_U238_ACT;TH232_PB204;U234_U238_ACT;U235_PB204;U238_PB204;U238_TH232_ACT;D7LI(VS LSVEC);D13C(VS PDB);D18O(PER MIL);D18O(VS SMOW);D18O(VS VSMOW);D34S(VS VCDT);ALBITE(MOL%);ANORTHITE(MOL%);CA OLIVINE(MOL%);CHROMITE(MOL%);ENSTATITE(MOL%);FAYALITE(MOL%);FORSTERITE(MOL%);FERROSILITE(MOL%);HEMATITE(MOL%);HERCYNITE(MOL%);ILMENITE(MOL%);MAGNESIOFERRITE(MOL%);MONTICELLITE(MOL%);MAGNETITE(MOL%);ORTHOCLASE(MOL%);PICROCHROMITE(MOL%);SPINEL(MOL%);TEPHROITE(MOL%);ULVOSPINEL(MOL%);WOLLASTONITE(MOL%);AGE(KA): altern. values or methods;;;;;;AGE(MA): altern. values or methods;;;;;;AGE_PB207_U235(MA);AGE_PB206_U238(MA);
2012;[16433] TAGLIANI S. (2012);samp. SS;;ETNA/SICILY / ELLITTICO SEQUENCE;MT. CALVARIO DOME;37.65;14.87;37.65;14.87;;;OUTCROP;;;SUBAERIAL;VOLCANIC ROCK;BENMOREITE;;AUTOBRECCIATED LAVA;;;QUATERNARY;;;;;;;WHOLE ROCK;;;;;;;;;;57.2;1.41;;;;17.51;;;;;;;;;6.83;;0.51;;5.43;2.22;0.51;;;;;;2.32;ICPMS;;;5.13;0.67;;;;;;;;0.13;;;;0.64;;;;;;;1500;;;;;;;;;;;;;;;;;;14;ICPMS;;;;101;ICPMS;;;;;;;11;ICPMS;;;;;;;;;;;;;;;;;;;;;;;68;ICPMS;;;;;1094;ICPMS;;;;;31;ICPMS;;;379;ICPMS;;;102;ICPMS;;;;;;;;;;;;;2.5;ICPMS;;;1227;ICPMS;;;127;ICPMS;;;226;ICPMS;;;22.9;82.6;ICPMS;;;;;14.4;ICPMS;;;3.97;ICPMS;;;10.9;ICPMS;;;;;;;7.1;ICPMS;;;;3.4;ICPMS;;;0.48;3.1;ICPMS;;;0.44;8.6;4.9;2;;;;;0.2;22;ICPMS;;;1.1;;;16.9;ICPMS;;;4.9;ICPMS;;;;;;;;;;;;;;;;;;;;;;;;;;;;;;;;;;;;;;;;;;;;;;;;;;;;;;;;;;;;;;;;;;;;;;;;;;;;;;;;;;;;;
2012;[16433] TAGLIANI S. (2012);samp. MOB;;ETNA/SICILY / ELLITTICO SEQUENCE;MT. CALVARIO DOME;37.65;14.87;37.65;14.87;;;OUTCROP;;;SUBAERIAL;VOLCANIC ROCK;BENMOREITE;;AUTOBRECCIATED LAVA;;;QUATERNARY;;;;;;;WHOLE ROCK;;;;;;;;;;56.47;1.44;;;;17.45;;;;;;;;;5.3;;1.32;;5.29;2.15;0.17;;;;;;2.7;ICPMS;;;5.2;0.7;;;;;;;;0.1;;;;0.48;;;;;;;900;;;;;;;;;;;;;;;;;;13.4;ICPMS;;;;102;ICPMS;;;;;;;12;ICPMS;;;;;;;;;;;;;;;;;;;;;;;;;;;;;1100;ICPMS;;;;;;;;;340;ICPMS;;;80.8;ICPMS;;;;;;;;;;;;;1.7;ICPMS;;;1231;ICPMS;;;120;ICPMS;;;215;ICPMS;;;23.7;78.9;ICPMS;;;;;13.7;ICPMS;;;3.72;ICPMS;;;11;ICPMS;;;;;;;6.89;ICPMS;;;;3.33;ICPMS;;;0.47;2.94;ICPMS;;;0.43;7.6;4.9;2.4;;;;;0.12;14;ICPMS;;;0;;;17.4;ICPMS;;;4.86;ICPMS;;;;;;;;;;;;;;;;;;;;;;;;;;;;;;;;;;;;;;;;;;;;;;;;;;;;;;;;;;;;;;;;;;;;;;;;;;;;;;;;;;;;;
2012;[16433] TAGLIANI S. (2012);samp. 4L;;ETNA/SICILY / ELLITTICO SEQUENCE;MT. CALVARIO DOME;37.65;14.87;37.65;14.87;;;OUTCROP;;;SUBAERIAL;VOLCANIC ROCK;BENMOREITE;;MASSIVE LAVA;;;QUATERNARY;;;;;;;MINERAL / COMPONENT (INCL. GROUNDMASS);CLINOPYROXENE;;;;PRIMARY;;;;;51.67;0.89;;;;2.04;;;;;;;;;;8.34;;;20.37;15.39;0.48;;;;;;0;EMP (EPMA);;;0.44;;;;;;;;;;;;;;;;;;;;;;;;;;;;;;;;;;;;;;;;;;;;;;;;;;;;;;;;;;;;;;;;;;;;;;;;;;;;;;;;;;;;;;;;;;;;;;;;;;;;;;;;;;;;;;;;;;;;;;;;;;;;;;;;;;;;;;;;;;;;;;;;;;;;;;;;;;;;;;;;;;;;;;;;;;;;;;;;;;;;;;;;;;;;;;;;;;;;;;;;;;;;;;;;;;;;;;;;;;;;;;;;;;;;;;;;;;;;;;;;;;;;;;;;;;;;;;;;;;;;;;;;;;;;
2012;[16433] TAGLIANI S. (2012);samp. 5l;;ETNA/SICILY / ELLITTICO SEQUENCE;MT. CALVARIO DOME;37.65;14.87;37.65;14.87;;;OUTCROP;;;SUBAERIAL;VOLCANIC ROCK;BENMOREITE;;MASSIVE LAVA;;;QUATERNARY;;;;;;;MINERAL / COMPONENT (INCL. GROUNDMASS);CLINOPYROXENE;;;;PRIMARY;;;;;51.89;0.84;;;;1.97;;;;;;;;;;8.66;;;20.09;15.66;0.51;;;;;;0;EMP (EPMA);;;0.51;;;;;;;;;;;;;;;;;;;;;;;;;;;;;;;;;;;;;;;;;;;;;;;;;;;;;;;;;;;;;;;;;;;;;;;;;;;;;;;;;;;;;;;;;;;;;;;;;;;;;;;;;;;;;;;;;;;;;;;;;;;;;;;;;;;;;;;;;;;;;;;;;;;;;;;;;;;;;;;;;;;;;;;;;;;;;;;;;;;;;;;;;;;;;;;;;;;;;;;;;;;;;;;;;;;;;;;;;;;;;;;;;;;;;;;;;;;;;;;;;;;;;;;;;;;;;;;;;;;;;;;;;;;;
2012;[16433] TAGLIANI S. (2012);samp. 6l;;ETNA/SICILY / ELLITTICO SEQUENCE;MT. CALVARIO DOME;37.65;14.87;37.65;14.87;;;OUTCROP;;;SUBAERIAL;VOLCANIC ROCK;BENMOREITE;;MASSIVE LAVA;;;QUATERNARY;;;;;;;MINERAL / COMPONENT (INCL. GROUNDMASS);CLINOPYROXENE;;;;PRIMARY;;;;;51.87;0.89;;;;2.1;;;;;;;;;;7.99;;;20.48;15.58;0.39;;;;;;0;EMP (EPMA);;;0.51;;;;;;;;;;;;;;;;;;;;;;;;;;;;;;;;;;;;;;;;;;;;;;;;;;;;;;;;;;;;;;;;;;;;;;;;;;;;;;;;;;;;;;;;;;;;;;;;;;;;;;;;;;;;;;;;;;;;;;;;;;;;;;;;;;;;;;;;;;;;;;;;;;;;;;;;;;;;;;;;;;;;;;;;;;;;;;;;;;;;;;;;;;;;;;;;;;;;;;;;;;;;;;;;;;;;;;;;;;;;;;;;;;;;;;;;;;;;;;;;;;;;;;;;;;;;;;;;;;;;;;;;;;;;
2012;[16433] TAGLIANI S. (2012);samp. 1P;;ETNA/SICILY / ELLITTICO SEQUENCE;MT. CALVARIO DOME;37.65;14.87;37.65;14.87;;;OUTCROP;;;SUBAERIAL;VOLCANIC ROCK;BENMOREITE;;LAVA AROUND FISSURES;;;QUATERNARY;;;;;;;MINERAL / COMPONENT (INCL. GROUNDMASS);CLINOPYROXENE;;;;PRIMARY;;;;;53.39;0.1;;;;0.55;;;;;;;;;;3.41;;;21.76;18.03;0.84;;;;;;0;EMP (EPMA);;;0.88;;;;;;;;;;;;;;;;;;;;;;;;;;;;;;;;;;;;;;;;;;;;;;;;;;;;;;;;;;;;;;;;;;;;;;;;;;;;;;;;;;;;;;;;;;;;;;;;;;;;;;;;;;;;;;;;;;;;;;;;;;;;;;;;;;;;;;;;;;;;;;;;;;;;;;;;;;;;;;;;;;;;;;;;;;;;;;;;;;;;;;;;;;;;;;;;;;;;;;;;;;;;;;;;;;;;;;;;;;;;;;;;;;;;;;;;;;;;;;;;;;;;;;;;;;;;;;;;;;;;;;;;;;;;
2012;[16433] TAGLIANI S. (2012);samp. 2P;;ETNA/SICILY / ELLITTICO SEQUENCE;MT. CALVARIO DOME;37.65;14.87;37.65;14.87;;;OUTCROP;;;SUBAERIAL;VOLCANIC ROCK;BENMOREITE;;LAVA AROUND FISSURES;;;QUATERNARY;;;;;;;MINERAL / COMPONENT (INCL. GROUNDMASS);CLINOPYROXENE;;;;PRIMARY;;;;;53.22;0.57;;;;1.48;;;;;;;;;;5.82;;;21.54;16.5;0.74;;;;;;0;EMP (EPMA);;;1.22;;;;;;;;;;;;;;;;;;;;;;;;;;;;;;;;;;;;;;;;;;;;;;;;;;;;;;;;;;;;;;;;;;;;;;;;;;;;;;;;;;;;;;;;;;;;;;;;;;;;;;;;;;;;;;;;;;;;;;;;;;;;;;;;;;;;;;;;;;;;;;;;;;;;;;;;;;;;;;;;;;;;;;;;;;;;;;;;;;;;;;;;;;;;;;;;;;;;;;;;;;;;;;;;;;;;;;;;;;;;;;;;;;;;;;;;;;;;;;;;;;;;;;;;;;;;;;;;;;;;;;;;;;;;
2012;[16433] TAGLIANI S. (2012);samp. 3P;;ETNA/SICILY / ELLITTICO SEQUENCE;MT. CALVARIO DOME;37.65;14.87;37.65;14.87;;;OUTCROP;;;SUBAERIAL;VOLCANIC ROCK;BENMOREITE;;LAVA AROUND FISSURES;;;QUATERNARY;;;;;;;MINERAL / COMPONENT (INCL. GROUNDMASS);CLINOPYROXENE;;;;PRIMARY;;;;;54.2;0.31;;;;0.89;;;;;;;;;;4.37;;;21.2;17.25;1.17;;;;;;0;EMP (EPMA);;;1.27;;;;;;;;;;;;;;;;;;;;;;;;;;;;;;;;;;;;;;;;;;;;;;;;;;;;;;;;;;;;;;;;;;;;;;;;;;;;;;;;;;;;;;;;;;;;;;;;;;;;;;;;;;;;;;;;;;;;;;;;;;;;;;;;;;;;;;;;;;;;;;;;;;;;;;;;;;;;;;;;;;;;;;;;;;;;;;;;;;;;;;;;;;;;;;;;;;;;;;;;;;;;;;;;;;;;;;;;;;;;;;;;;;;;;;;;;;;;;;;;;;;;;;;;;;;;;;;;;;;;;;;;;;;;
2012;[16433] TAGLIANI S. (2012);samp. 4L;;ETNA/SICILY / ELLITTICO SEQUENCE;MT. CALVARIO DOME;37.65;14.87;37.65;14.87;;;OUTCROP;;;SUBAERIAL;VOLCANIC ROCK;BENMOREITE;;MASSIVE LAVA;;;QUATERNARY;;;;;;;MINERAL / COMPONENT (INCL. GROUNDMASS);OLIVINE;;;;PRIMARY;;;;;37.71;0;;;;0;;;;;;;;;;25.75;;;0.15;35.69;0.91;;;;;;;;;;;;;;;;;;;;;;;;;;;;;;;;;;;;;;;;;;;;;;;;;;;;;;;;;;;;;;;;;;;;;;;;;;;;;;;;;;;;;;;;;;;;;;;;;;;;;;;;;;;;;;;;;;;;;;;;;;;;;;;;;;;;;;;;;;;;;;;;;;;;;;;;;;;;;;;;;;;;;;;;;;;;;;;;;;;;;;;;;;;;;;;;;;;;;;;;;;;;;;;;;;;;;;;;;;;;;;;;;;;;;;;;;;;;;;;;;;;;;;;;;;;;;;;;;;;;;;;;;;;;;;;;;;;;;;
2012;[16433] TAGLIANI S. (2012);samp. 5l;;ETNA/SICILY / ELLITTICO SEQUENCE;MT. CALVARIO DOME;37.65;14.87;37.65;14.87;;;OUTCROP;;;SUBAERIAL;VOLCANIC ROCK;BENMOREITE;;MASSIVE LAVA;;;QUATERNARY;;;;;;;MINERAL / COMPONENT (INCL. GROUNDMASS);OLIVINE;;;;PRIMARY;;;;;37.2;0;;;;0;;;;;;;;;;26.08;;;0.16;35.4;0.87;;;;;;;;;;;;;;;;;;;;;;;;;;;;;;;;;;;;;;;;;;;;;;;;;;;;;;;;;;;;;;;;;;;;;;;;;;;;;;;;;;;;;;;;;;;;;;;;;;;;;;;;;;;;;;;;;;;;;;;;;;;;;;;;;;;;;;;;;;;;;;;;;;;;;;;;;;;;;;;;;;;;;;;;;;;;;;;;;;;;;;;;;;;;;;;;;;;;;;;;;;;;;;;;;;;;;;;;;;;;;;;;;;;;;;;;;;;;;;;;;;;;;;;;;;;;;;;;;;;;;;;;;;;;;;;;;;;;;;
2012;[16433] TAGLIANI S. (2012);samp. 6l;;ETNA/SICILY / ELLITTICO SEQUENCE;MT. CALVARIO DOME;37.65;14.87;37.65;14.87;;;OUTCROP;;;SUBAERIAL;VOLCANIC ROCK;BENMOREITE;;MASSIVE LAVA;;;QUATERNARY;;;;;;;MINERAL / COMPONENT (INCL. GROUNDMASS);OLIVINE;;;;PRIMARY;;;;;37.52;0;;;;0;;;;;;;;;;26.14;;;0.15;35.29;0.84;;;;;;;;;;;;;;;;;;;;;;;;;;;;;;;;;;;;;;;;;;;;;;;;;;;;;;;;;;;;;;;;;;;;;;;;;;;;;;;;;;;;;;;;;;;;;;;;;;;;;;;;;;;;;;;;;;;;;;;;;;;;;;;;;;;;;;;;;;;;;;;;;;;;;;;;;;;;;;;;;;;;;;;;;;;;;;;;;;;;;;;;;;;;;;;;;;;;;;;;;;;;;;;;;;;;;;;;;;;;;;;;;;;;;;;;;;;;;;;;;;;;;;;;;;;;;;;;;;;;;;;;;;;;;;;;;;;;;;
2012;[16433] TAGLIANI S. (2012);samp. 7L;;ETNA/SICILY / ELLITTICO SEQUENCE;MT. CALVARIO DOME;37.65;14.87;37.65;14.87;;;OUTCROP;;;SUBAERIAL;VOLCANIC ROCK;BENMOREITE;;MASSIVE LAVA;;;QUATERNARY;;;;;;;MINERAL / COMPONENT (INCL. GROUNDMASS);OLIVINE;;;;PRIMARY;;;;;36.57;0;;;;0;0;;;;;;;;;25.96;;;0.19;35.63;0.93;;;0;;;;;;;;;;;;;;;;;;;;;;;;;;;;;;;;;;;;;;;;;;;;;;;;;;;;;;;;;;;;;;;;;;;;;;;;;;;;;;;;;;;;;;;;;;;;;;;;;;;;;;;;;;;;;;;;;;;;;;;;;;;;;;;;;;;;;;;;;;;;;;;;;;;;;;;;;;;;;;;;;;;;;;;;;;;;;;;;;;;;;;;;;;;;;;;;;;;;;;;;;;;;;;;;;;;;;;;;;;;;;;;;;;;;;;;;;;;;;;;;;;;;;;;;;;;;;;;;;;;;;;;;;;;;;;;;;;;
2012;[16433] TAGLIANI S. (2012);samp. 8L;;ETNA/SICILY / ELLITTICO SEQUENCE;MT. CALVARIO DOME;37.65;14.87;37.65;14.87;;;OUTCROP;;;SUBAERIAL;VOLCANIC ROCK;BENMOREITE;;MASSIVE LAVA;;;QUATERNARY;;;;;;;MINERAL / COMPONENT (INCL. GROUNDMASS);OLIVINE;;;;PRIMARY;;;;;37.67;0;;;;0;0;;;;;;;;;25.32;;;0.13;35.69;0.87;;;0;;;;;;;;;;;;;;;;;;;;;;;;;;;;;;;;;;;;;;;;;;;;;;;;;;;;;;;;;;;;;;;;;;;;;;;;;;;;;;;;;;;;;;;;;;;;;;;;;;;;;;;;;;;;;;;;;;;;;;;;;;;;;;;;;;;;;;;;;;;;;;;;;;;;;;;;;;;;;;;;;;;;;;;;;;;;;;;;;;;;;;;;;;;;;;;;;;;;;;;;;;;;;;;;;;;;;;;;;;;;;;;;;;;;;;;;;;;;;;;;;;;;;;;;;;;;;;;;;;;;;;;;;;;;;;;;;;;
2012;[16433] TAGLIANI S. (2012);samp. 9L;;ETNA/SICILY / ELLITTICO SEQUENCE;MT. CALVARIO DOME;37.65;14.87;37.65;14.87;;;OUTCROP;;;SUBAERIAL;VOLCANIC ROCK;BENMOREITE;;MASSIVE LAVA;;;QUATERNARY;;;;;;;MINERAL / COMPONENT (INCL. GROUNDMASS);OLIVINE;;;;PRIMARY;;;;;37.38;0;;;;0;0;;;;;;;;;26.96;;;0.16;34.89;0.81;;;0;;;;;;;;;;;;;;;;;;;;;;;;;;;;;;;;;;;;;;;;;;;;;;;;;;;;;;;;;;;;;;;;;;;;;;;;;;;;;;;;;;;;;;;;;;;;;;;;;;;;;;;;;;;;;;;;;;;;;;;;;;;;;;;;;;;;;;;;;;;;;;;;;;;;;;;;;;;;;;;;;;;;;;;;;;;;;;;;;;;;;;;;;;;;;;;;;;;;;;;;;;;;;;;;;;;;;;;;;;;;;;;;;;;;;;;;;;;;;;;;;;;;;;;;;;;;;;;;;;;;;;;;;;;;;;;;;;;
2012;[16433] TAGLIANI S. (2012);samp. 4L;;ETNA/SICILY / ELLITTICO SEQUENCE;MT. CALVARIO DOME;37.65;14.87;37.65;14.87;;;OUTCROP;;;SUBAERIAL;VOLCANIC ROCK;BENMOREITE;;MASSIVE LAVA;;;QUATERNARY;;;;;;;MINERAL / COMPONENT (INCL. GROUNDMASS);PLAGIOCLASE;;;;PRIMARY;;;;;55.39;0;;;;27.1;;;;;;;;;;0.54;;;10.35;0;0;0.11;0.18;;;;0.36;EMP (EPMA);;;5.3;0;;;;;;;;;;;;;;;;;;;;;;;;;;;;;;;;;;;;;;;;;;;;;;;;;;;;;;;;;;;;;;;;;;;;;;;;;;;;;;;;;;;;;;;;;;;;;;;;;;;;;;;;;;;;;;;;;;;;;;;;;;;;;;;;;;;;;;;;;;;;;;;;;;;;;;;;;;;;;;;;;;;;;;;;;;;;;;;;;;;;;;;;;;;;;;;;;;;;;;;;;;;;;;;;;;;;;;;;;;;;;;;;;;;;;;;;;;;;;;;;;;;;;;;;;;;;;;;;;;;;;;;;;;;
2012;[16433] TAGLIANI S. (2012);samp. 5l;;ETNA/SICILY / ELLITTICO SEQUENCE;MT. CALVARIO DOME;37.65;14.87;37.65;14.87;;;OUTCROP;;;SUBAERIAL;VOLCANIC ROCK;BENMOREITE;;MASSIVE LAVA;;;QUATERNARY;;;;;;;MINERAL / COMPONENT (INCL. GROUNDMASS);PLAGIOCLASE;;;;PRIMARY;;;;;56.45;0;;;;26.6;;;;;;;;;;0.64;;;9.22;0;0;0.13;0.2;;;;0.39;EMP (EPMA);;;5.62;0;;;;;;;;;;;;;;;;;;;;;;;;;;;;;;;;;;;;;;;;;;;;;;;;;;;;;;;;;;;;;;;;;;;;;;;;;;;;;;;;;;;;;;;;;;;;;;;;;;;;;;;;;;;;;;;;;;;;;;;;;;;;;;;;;;;;;;;;;;;;;;;;;;;;;;;;;;;;;;;;;;;;;;;;;;;;;;;;;;;;;;;;;;;;;;;;;;;;;;;;;;;;;;;;;;;;;;;;;;;;;;;;;;;;;;;;;;;;;;;;;;;;;;;;;;;;;;;;;;;;;;;;;;;
2012;[16433] TAGLIANI S. (2012);samp. 6l;;ETNA/SICILY / ELLITTICO SEQUENCE;MT. CALVARIO DOME;37.65;14.87;37.65;14.87;;;OUTCROP;;;SUBAERIAL;VOLCANIC ROCK;BENMOREITE;;MASSIVE LAVA;;;QUATERNARY;;;;;;;MINERAL / COMPONENT (INCL. GROUNDMASS);PLAGIOCLASE;;;;PRIMARY;;;;;56.64;0;;;;27.09;;;;;;;;;;0.51;;;9.61;0;0;0;0.26;;;;0.41;EMP (EPMA);;;5.49;0;;;;;;;;;;;;;;;;;;;;;;;;;;;;;;;;;;;;;;;;;;;;;;;;;;;;;;;;;;;;;;;;;;;;;;;;;;;;;;;;;;;;;;;;;;;;;;;;;;;;;;;;;;;;;;;;;;;;;;;;;;;;;;;;;;;;;;;;;;;;;;;;;;;;;;;;;;;;;;;;;;;;;;;;;;;;;;;;;;;;;;;;;;;;;;;;;;;;;;;;;;;;;;;;;;;;;;;;;;;;;;;;;;;;;;;;;;;;;;;;;;;;;;;;;;;;;;;;;;;;;;;;;;;
2012;[16433] TAGLIANI S. (2012);samp. 1P;;ETNA/SICILY / ELLITTICO SEQUENCE;MT. CALVARIO DOME;37.65;14.87;37.65;14.87;;;OUTCROP;;;SUBAERIAL;VOLCANIC ROCK;BENMOREITE;;LAVA AROUND FISSURES;;;QUATERNARY;;;;;;;MINERAL / COMPONENT (INCL. GROUNDMASS);PLAGIOCLASE;;;;PRIMARY;;;;;56.67;0;;;;25.93;;;;;;;;;;0.57;;;9.37;0;0;0;0.2;;;;0.43;EMP (EPMA);;;5.84;;;;;;;;;;;;;;;;;;;;;;;;;;;;;;;;;;;;;;;;;;;;;;;;;;;;;;;;;;;;;;;;;;;;;;;;;;;;;;;;;;;;;;;;;;;;;;;;;;;;;;;;;;;;;;;;;;;;;;;;;;;;;;;;;;;;;;;;;;;;;;;;;;;;;;;;;;;;;;;;;;;;;;;;;;;;;;;;;;;;;;;;;;;;;;;;;;;;;;;;;;;;;;;;;;;;;;;;;;;;;;;;;;;;;;;;;;;;;;;;;;;;;;;;;;;;;;;;;;;;;;;;;;;;
2012;[16433] TAGLIANI S. (2012);samp. 2P;;ETNA/SICILY / ELLITTICO SEQUENCE;MT. CALVARIO DOME;37.65;14.87;37.65;14.87;;;OUTCROP;;;SUBAERIAL;VOLCANIC ROCK;BENMOREITE;;LAVA AROUND FISSURES;;;QUATERNARY;;;;;;;MINERAL / COMPONENT (INCL. GROUNDMASS);PLAGIOCLASE;;;;PRIMARY;;;;;57.16;0;;;;25.84;;;;;;;;;;0.57;;;9.07;0;0;0.1;0.14;;;;0.48;EMP (EPMA);;;5.9;;;;;;;;;;;;;;;;;;;;;;;;;;;;;;;;;;;;;;;;;;;;;;;;;;;;;;;;;;;;;;;;;;;;;;;;;;;;;;;;;;;;;;;;;;;;;;;;;;;;;;;;;;;;;;;;;;;;;;;;;;;;;;;;;;;;;;;;;;;;;;;;;;;;;;;;;;;;;;;;;;;;;;;;;;;;;;;;;;;;;;;;;;;;;;;;;;;;;;;;;;;;;;;;;;;;;;;;;;;;;;;;;;;;;;;;;;;;;;;;;;;;;;;;;;;;;;;;;;;;;;;;;;;;
2012;[16433] TAGLIANI S. (2012);samp. 3P;;ETNA/SICILY / ELLITTICO SEQUENCE;MT. CALVARIO DOME;37.65;14.87;37.65;14.87;;;OUTCROP;;;SUBAERIAL;VOLCANIC ROCK;BENMOREITE;;LAVA AROUND FISSURES;;;QUATERNARY;;;;;;;MINERAL / COMPONENT (INCL. GROUNDMASS);PLAGIOCLASE;;;;PRIMARY;;;;;56.67;0;;;;26.3;;;;;;;;;;0.52;;;9.44;0;0;0.1;0.18;;;;0.42;EMP (EPMA);;;5.73;;;;;;;;;;;;;;;;;;;;;;;;;;;;;;;;;;;;;;;;;;;;;;;;;;;;;;;;;;;;;;;;;;;;;;;;;;;;;;;;;;;;;;;;;;;;;;;;;;;;;;;;;;;;;;;;;;;;;;;;;;;;;;;;;;;;;;;;;;;;;;;;;;;;;;;;;;;;;;;;;;;;;;;;;;;;;;;;;;;;;;;;;;;;;;;;;;;;;;;;;;;;;;;;;;;;;;;;;;;;;;;;;;;;;;;;;;;;;;;;;;;;;;;;;;;;;;;;;;;;;;;;;;;;
2012;[16433] TAGLIANI S. (2012);samp. 4L;;ETNA/SICILY / ELLITTICO SEQUENCE;MT. CALVARIO DOME;37.65;14.87;37.65;14.87;;;OUTCROP;;;SUBAERIAL;VOLCANIC ROCK;BENMOREITE;;MASSIVE LAVA;;;QUATERNARY;;;;;;;MINERAL / COMPONENT (INCL. GROUNDMASS);FE-TI-OXIDE;;;;PRIMARY;;;;;0;5.72;;;;0.97;0;;;;;;;;;81.77;;;;2.6;0.84;;;0;0;;;;;;;;;;;;;;;;;;;;;;;;;;;;;;;;;;;;;;;;;;;;;;;;;;;;;;;;;;;;;;;;;;;;;;;;;;;;;;;;;;;;;;;;;;;;;;;;;;;;;;;;;;;;;;;;;;;;;;;;;;;;;;;;;;;;;;;;;;;;;;;;;;;;;;;;;;;;;;;;;;;;;;;;;;;;;;;;;;;;;;;;;;;;;;;;;;;;;;;;;;;;;;;;;;;;;;;;;;;;;;;;;;;;;;;;;;;;;;;;;;;;;;;;;;;;;;;;;;;;;;;;;;;;;;;;;;
2012;[16433] TAGLIANI S. (2012);samp. 5l;;ETNA/SICILY / ELLITTICO SEQUENCE;MT. CALVARIO DOME;37.65;14.87;37.65;14.87;;;OUTCROP;;;SUBAERIAL;VOLCANIC ROCK;BENMOREITE;;MASSIVE LAVA;;;QUATERNARY;;;;;;;MINERAL / COMPONENT (INCL. GROUNDMASS);FE-TI-OXIDE;;;;PRIMARY;;;;;0;38.01;;;;1.59;0;;;;;;;;;49.38;;;;2.96;0.49;;;;0;;;;;;;;;;;;;;;;;;;;;;;;;;;;;;;;;;;;;;;;;;;;;;;;;;;;;;;;;;;;;;;;;;;;;;;;;;;;;;;;;;;;;;;;;;;;;;;;;;;;;;;;;;;;;;;;;;;;;;;;;;;;;;;;;;;;;;;;;;;;;;;;;;;;;;;;;;;;;;;;;;;;;;;;;;;;;;;;;;;;;;;;;;;;;;;;;;;;;;;;;;;;;;;;;;;;;;;;;;;;;;;;;;;;;;;;;;;;;;;;;;;;;;;;;;;;;;;;;;;;;;;;;;;;;;;;;;
2012;[16433] TAGLIANI S. (2012);samp. 1P;;ETNA/SICILY / ELLITTICO SEQUENCE;MT. CALVARIO DOME;37.65;14.87;37.65;14.87;;;OUTCROP;;;SUBAERIAL;VOLCANIC ROCK;BENMOREITE;;LAVA AROUND FISSURES;;;QUATERNARY;;;;;;;MINERAL / COMPONENT (INCL. GROUNDMASS);FE-TI-OXIDE;;;;PRIMARY;;;;;0.1;3.53;;;;5.3;0;;;;;;;;;79.69;;;;4.24;0.43;;;0;0.25;;;;;;;;;;;;;;;;;;;;;;;;;;;;;;;;;;;;;;;;;;;;;;;;;;;;;;;;;;;;;;;;;;;;;;;;;;;;;;;;;;;;;;;;;;;;;;;;;;;;;;;;;;;;;;;;;;;;;;;;;;;;;;;;;;;;;;;;;;;;;;;;;;;;;;;;;;;;;;;;;;;;;;;;;;;;;;;;;;;;;;;;;;;;;;;;;;;;;;;;;;;;;;;;;;;;;;;;;;;;;;;;;;;;;;;;;;;;;;;;;;;;;;;;;;;;;;;;;;;;;;;;;;;;;;;;;;
2012;[16433] TAGLIANI S. (2012);samp. 2P;;ETNA/SICILY / ELLITTICO SEQUENCE;MT. CALVARIO DOME;37.65;14.87;37.65;14.87;;;OUTCROP;;;SUBAERIAL;VOLCANIC ROCK;BENMOREITE;;LAVA AROUND FISSURES;;;QUATERNARY;;;;;;;MINERAL / COMPONENT (INCL. GROUNDMASS);FE-TI-OXIDE;;;;PRIMARY;;;;;0.18;34.89;;;;0.26;0;;;;;;;;;54.41;;;;4.26;1.17;;;;0.13;;;;;;;;;;;;;;;;;;;;;;;;;;;;;;;;;;;;;;;;;;;;;;;;;;;;;;;;;;;;;;;;;;;;;;;;;;;;;;;;;;;;;;;;;;;;;;;;;;;;;;;;;;;;;;;;;;;;;;;;;;;;;;;;;;;;;;;;;;;;;;;;;;;;;;;;;;;;;;;;;;;;;;;;;;;;;;;;;;;;;;;;;;;;;;;;;;;;;;;;;;;;;;;;;;;;;;;;;;;;;;;;;;;;;;;;;;;;;;;;;;;;;;;;;;;;;;;;;;;;;;;;;;;;;;;;;;
2012;[16433] TAGLIANI S. (2012);samp. 1L;;ETNA/SICILY / ELLITTICO SEQUENCE;MT. CALVARIO DOME;37.65;14.87;37.65;14.87;;;OUTCROP;;;SUBAERIAL;VOLCANIC ROCK;BENMOREITE;;MASSIVE LAVA;;;QUATERNARY;;;;;;;MINERAL / COMPONENT (INCL. GROUNDMASS);APATITE;;;;PRIMARY;;;;;0.28;;;;;;;0.13;0.34;;;;;;;;;0.38;55.17;0.43;0.17;;0;;0;;0;EMP (EPMA);;;0.16;39.41;0;;;;;;2.66;1;;0.24;;;;;;;;;;;;;;;;;;;;;;;;;;;;;;;;;;;;;;;;;;;;;;;;;;;;;;;;;;;;;;;;;;;;;;;;;;;;;;;;;;;;;;;;;;;;;;;;;;;;;;;;;;;;;;;;;;;;;;;;;;;;;;;;;;;;;;;;;;;;;;;;;;;;;;;;;;;;;;;;;;;;;;;;;;;;;;;;;;;;;;;;;;;;;;;;;;;;;;;;;;;;;;;;;;;;;;;;;;;;;;;;;;;;;;;;;;;;;;;;;;;;;;;;;;;;;;;;;
2012;[16433] TAGLIANI S. (2012);samp. 2L;;ETNA/SICILY / ELLITTICO SEQUENCE;MT. CALVARIO DOME;37.65;14.87;37.65;14.87;;;OUTCROP;;;SUBAERIAL;VOLCANIC ROCK;BENMOREITE;;MASSIVE LAVA;;;QUATERNARY;;;;;;;MINERAL / COMPONENT (INCL. GROUNDMASS);APATITE;;;;PRIMARY;;;;;0.35;;;;;;;0.2;0.34;;;;;;;;;0.98;54.07;0.41;0.12;;0;;0;;0;EMP (EPMA);;;0.24;40.7;0;;;;;;2.64;0.92;;0.3;;;;;;;;;;;;;;;;;;;;;;;;;;;;;;;;;;;;;;;;;;;;;;;;;;;;;;;;;;;;;;;;;;;;;;;;;;;;;;;;;;;;;;;;;;;;;;;;;;;;;;;;;;;;;;;;;;;;;;;;;;;;;;;;;;;;;;;;;;;;;;;;;;;;;;;;;;;;;;;;;;;;;;;;;;;;;;;;;;;;;;;;;;;;;;;;;;;;;;;;;;;;;;;;;;;;;;;;;;;;;;;;;;;;;;;;;;;;;;;;;;;;;;;;;;;;;;;;;
2012;[16433] TAGLIANI S. (2012);samp. 3L;;ETNA/SICILY / ELLITTICO SEQUENCE;MT. CALVARIO DOME;37.65;14.87;37.65;14.87;;;OUTCROP;;;SUBAERIAL;VOLCANIC ROCK;BENMOREITE;;MASSIVE LAVA;;;QUATERNARY;;;;;;;MINERAL / COMPONENT (INCL. GROUNDMASS);APATITE;;;;PRIMARY;;;;;0.26;;;;;;;0.16;0.3;;;;;;;;;0.73;54.44;0.43;0.12;;0;;0;;0;EMP (EPMA);;;0.16;40.99;0;;;;;;2.45;0.87;;0.31;;;;;;;;;;;;;;;;;;;;;;;;;;;;;;;;;;;;;;;;;;;;;;;;;;;;;;;;;;;;;;;;;;;;;;;;;;;;;;;;;;;;;;;;;;;;;;;;;;;;;;;;;;;;;;;;;;;;;;;;;;;;;;;;;;;;;;;;;;;;;;;;;;;;;;;;;;;;;;;;;;;;;;;;;;;;;;;;;;;;;;;;;;;;;;;;;;;;;;;;;;;;;;;;;;;;;;;;;;;;;;;;;;;;;;;;;;;;;;;;;;;;;;;;;;;;;;;;;