Year;CITATION;SAMPLE NAME;UNIQUE_ID;LOCATION;LOCATION COMMENT;LATITUDE (MIN.);LONGITUDE (MIN.);LATITUDE (MAX.);LONGITUDE (MAX.);ELEVATION (MIN.);ELEVATION (MAX.);SAMPLING TECHNIQUE;DRILLING DEPTH (MIN.);DRILLING DEPTH (MAX.);LAND/SEA (SAMPLING);ROCK TYPE;ROCK NAME;ROCK TEXTURE;SAMPLE COMMENT;AGE (MIN.);AGE (MAX.);GEOLOGICAL AGE;GEOLOGICAL AGE PREFIX;ERUPTION DAY;ERUPTION MONTH;ERUPTION YEAR;ALTERATION;ALTERATION TYPE;TYPE OF MATERIAL;MINERAL / COMPONENT;SPOT (MINERAL);CRYSTAL;RIM / CORE (MINERAL GRAINS);PRIMARY/SECONDARY;INCLUSION TYPE;MINERAL (INCLUSION);HOSTMINERAL (INCLUSION);HEATING;SIO2(WT%);TIO2(WT%);ZRO2(WT%);HFO2(WT%);THO2(WT%);AL2O3(WT%);CR2O3(WT%);LA2O3(WT%);CE2O3(WT%);ND2O3(WT%);SM2O3(WT%);V2O3(WT%);NB2O5(WT%);FE2O3T(WT%);FE2O3(WT%);FEOT(WT%);FEO(WT%);FET(WT%);CAO(WT%);MGO(WT%);MNO(WT%);BAO(WT%);SRO(WT%);NIO(WT%);ZNO(WT%);RB2O(WT%);K2O(WT%);;;;NA2O(WT%);P2O5(WT%);AS2O5(WT%);H2O(WT%);H2OP(WT%);H2OM(WT%);CO2(WT%);C(WT%);F(WT%);CL(WT%);OH(WT%);SO3(WT%);S(WT%);LOI(WT%);TI(WT%);CA(WT%);K(WT%);LI(PPM);BE(PPM);B(PPM);F(PPM);P(PPM);S(PPM);CL(PPM);AR40(AT/G);;;;AR40(CCMSTP/G);;;;AR40(MOL/G);;;;AR40(PPB);K(PPM);SC(PPM);;;;TI(PPM);V(PPM);;;;CR(PPM);;;;CO(PPM);;;;NI(PPM);;;;CU(PPM);;;;ZN(PPM);;;;GA(PPM);;;;GE(PPM);AS(PPM);AS(PPB);SE(PPM);RB(PPM);;;;;;SR(PPM);;;;;;Y(PPM);;;;ZR(PPM);;;;NB(PPM);;;;MO(PPM);AG(PPM);CD(PPM);IN(PPM);SN(PPM);SB(PPM): altern. values or methods;;;;TE(PPM);CS(PPM): altern. values or methods;;;;BA(PPM): altern. values or methods;;;;LA(PPM): altern. values or methods;;;;CE(PPM): altern. values or methods;;;;PR(PPM);ND(PPM): altern. values or methods;;;;;;SM(PPM): altern. values or methods;;;;EU(PPM): altern. values or methods;;;;GD(PPM): altern. values or methods;;;;TB(PPM): altern. values or methods;;;;DY(PPM): altern. values or methods;;;;HO(PPM);ER(PPM): altern. values or methods;;;;TM(PPM);YB(PPM): altern. values or methods;;;;LU(PPM);HF(PPM);TA(PPM);W(PPM);RE(PPM);AU(PPM);HG(PPM);HG(PPB);TL(PPM);PB(PPM): altern. values or methods;;;;BI(PPM);PO210_ACT(DPM/G);RA226_ACT(DPM/G);TH(PPM): altern. values or methods;;;;U(PPM): altern. values or methods;;;;ND143_ND144;ND143_ND144_INI;EPSILON_ND;EPSILON_ND_INI;SM147_ND144;SR87_SR86;SR87_SR86_INI;EPSILON_SR_INI;RB87_SR86;PB206_PB204: altern. values or methods;;;;PB206_PB204_INI;PB207_PB204: altern. values or methods;;;;PB207_PB204_INI;PB207_PB206;PB208_PB204: altern. values or methods;;;;PB208_PB204_INI;PB208_PB206;HF176_HF177;LU176_HF177;AR38_AR36;AR40_AR36;AR40_AR36_INI;PB206_U238;PB207_U235;RA226_TH230_ACT;PA231_U235_ACT;TH230_TH232_ACT;TH230_U238_ACT;TH232_PB204;U234_U238_ACT;U235_PB204;U238_PB204;U238_TH232_ACT;D7LI(VS LSVEC);D13C(VS PDB);D18O(PER MIL);D18O(VS SMOW);D18O(VS VSMOW);D34S(VS VCDT);ALBITE(MOL%);ANORTHITE(MOL%);CA OLIVINE(MOL%);CHROMITE(MOL%);ENSTATITE(MOL%);FAYALITE(MOL%);FORSTERITE(MOL%);FERROSILITE(MOL%);HEMATITE(MOL%);HERCYNITE(MOL%);ILMENITE(MOL%);MAGNESIOFERRITE(MOL%);MONTICELLITE(MOL%);MAGNETITE(MOL%);ORTHOCLASE(MOL%);PICROCHROMITE(MOL%);SPINEL(MOL%);TEPHROITE(MOL%);ULVOSPINEL(MOL%);WOLLASTONITE(MOL%);AGE(KA): altern. values or methods;;;;;;AGE(MA): altern. values or methods;;;;;;AGE_PB207_U235(MA);AGE_PB206_U238(MA);
2005;[8489] LEGENDRE C.(2005)  [GeoReM [1177] ];samp. UP66;;MARQUESAS / UA POU;EAST COAST OF UA POU BETWEEN HAKAHETAU AND HIKEU;-9.42;-140;-9.42;-140;;;OUTCROP;;;SUBAERIAL;VOLCANIC ROCK;BENMOREITE;PORPHYRITIC;LAHARIC BRECCIA;;;;;;;;;;WHOLE ROCK;;;;;;;;;;56;1.25;;;;19.1;;;;;;;;5.25;;;;;3.75;1.07;0.18;;;;;;4.95;ICPAES;;;4.87;0.25;;;;;;;;;;;;3.07;;;4.349;;;;;;;;;;;;;;;;2.21E-12;MS;;;;;1;ICPAES;;;;33;ICPAES;;;1.5;ICPAES;;;2;ICPAES;;;2;ICPAES;;;;;;;;;;;;;;;;;;;130;ICPAES;;;;;1200;ICPAES;;;;;34.5;ICPAES;;;630;ICPAES;;;136;ICPAES;;;;;;;;;;;;;;;;;1200;ICPAES;;;116;ICPAES;;;210;ICPAES;;;;76;ICPAES;;;;;11.9;ICPAES;;;3.27;ICPAES;;;8.6;ICPAES;;;;;;;6.4;ICPAES;;;;3;ICPAES;;;;2.72;ICPAES;;;;;;;;;;;;;;;;;;;21.4;ICPAES;;;;;;;0.512727;;;;;0.704988;;;;19.215;TIMS;;;;15.608;TIMS;;;;;39.201;TIMS;;;;;;;;;;;;;;;;;;;;;;;;;;;;;;;;;;;;;;;;;;;;;;;;;;;;;2.93;K-AR;;;;;;;
2005;[8489] LEGENDRE C.(2005)  [GeoReM [1177] ];samp. UP66;;MARQUESAS / UA POU;EAST COAST OF UA POU BETWEEN HAKAHETAU AND HIKEU;-9.42;-140;-9.42;-140;;;OUTCROP;;;SUBAERIAL;VOLCANIC ROCK;BENMOREITE;PORPHYRITIC;LAHARIC BRECCIA;;;;;;;;;;WHOLE ROCK;;;;;;;;;;;;;;;;;;;;;;;;;;;;;;;;;;;;;;;;;;;;;;;;;;;;;;;;;;;;;;;;;;;;;;;;;;;;;;;;;;;;;;;;;;;3.43;ICPMS;;;;;;;;;;;;;;;;;;;;;;;127;ICPMS;;;;;1197;ICPMS;;;;;35.1;ICPMS;;;690;ICPMS;;;157;ICPMS;;;;;;;;;;;;;;;;;1134;ICPMS;;;116;ICPMS;;;212;ICPMS;;;;74.2;ICPMS;;;;;11.4;ICPMS;;;3.11;ICPMS;;;8.3;ICPMS;;;1.21;ICPMS;;;6.29;ICPMS;;;1.2;3.17;ICPMS;;;;2.77;ICPMS;;;;14;9.76;;;;;;;9.72;ICPMS;;;;;;22.3;ICPMS;;;4.89;ICPMS;;;;;;;;;;;;;;;;;;;;;;;;;;;;;;;;;;;;;;;;;;;;;;;;;;;;;;;;;;;;;;;;;;;;;;;;;;;;;;;;;;;;;
2005;[8489] LEGENDRE C.(2005)  [GeoReM [1177] ];samp. UP40;;MARQUESAS / UA POU;;-9.42;-140;-9.42;-140;;;OUTCROP;;;SUBAERIAL;VOLCANIC ROCK;BENMOREITE;PORPHYRITIC;;;;;;;;;;;WHOLE ROCK;;;;;;;;;;55.6;1.2;;;;19.4;;;;;;;;4.86;;;;;3.21;0.97;0.16;;;;;;5.42;ICPAES;;;4.38;0.24;;;;;;;;;;;;4.17;;;;;;;;;;;;;;;;;;;;;;;;;1;ICPAES;;;;38;ICPAES;;;2.5;ICPAES;;;3;ICPAES;;;2;ICPAES;;;;;;;;;;;;;;;;;;;140;ICPAES;;;;;1130;ICPAES;;;;;34;ICPAES;;;659;ICPAES;;;142;ICPAES;;;;;;;;;;;;;;;;;1230;ICPAES;;;122;ICPAES;;;215;ICPAES;;;;75;ICPAES;;;;;11.3;ICPAES;;;3.07;ICPAES;;;8.4;ICPAES;;;;;;;6.15;ICPAES;;;;3.2;ICPAES;;;;2.3;ICPAES;;;;;;;;;;;;;;;;;;;23.1;ICPAES;;;;;;;;;;;;;;;;;;;;;;;;;;;;;;;;;;;;;;;;;;;;;;;;;;;;;;;;;;;;;;;;;;;;;;;;;;;;;;;;;;;;;;;;;
2005;[8489] LEGENDRE C.(2005)  [GeoReM [1177] ];samp. UP66;;MARQUESAS / UA POU;EAST COAST OF UA POU BETWEEN HAKAHETAU AND HIKEU;-9.42;-140;-9.42;-140;;;OUTCROP;;;SUBAERIAL;VOLCANIC ROCK;BENMOREITE;PORPHYRITIC;LAHARIC BRECCIA;;;;;;;;;;MINERAL / COMPONENT (INCL. GROUNDMASS);CLINOPYROXENE;;PHENOCRYST;CORE;PRIMARY;;;;;45.61;2.37;;;;6.17;0.04;;;;;;;;5.54;;5.85;;21.78;10.41;0.43;;;;;;;;;;0.85;;;;;;;;;;;;;;;;;;;;;;;;;;;;;;;;;;;;;;;;;;;;;;;;;;;;;;;;;;;;;;;;;;;;;;;;;;;;;;;;;;;;;;;;;;;;;;;;;;;;;;;;;;;;;;;;;;;;;;;;;;;;;;;;;;;;;;;;;;;;;;;;;;;;;;;;;;;;;;;;;;;;;;;;;;;;;;;;;;;;;;;;;;;;;;;;;;;;;;;;;;;;;;;;;;;;;;;;;;;;;;;;;;;;;;;;;;;;;;32;;;20;;;;;;;;;;;;48;;;;;;;;;;;;;;;
2005;[8489] LEGENDRE C.(2005)  [GeoReM [1177] ];samp. UP66;;MARQUESAS / UA POU;EAST COAST OF UA POU BETWEEN HAKAHETAU AND HIKEU;-9.42;-140;-9.42;-140;;;OUTCROP;;;SUBAERIAL;VOLCANIC ROCK;BENMOREITE;PORPHYRITIC;LAHARIC BRECCIA;;;;;;;;;;MINERAL / COMPONENT (INCL. GROUNDMASS);PLAGIOCLASE;;PHENOCRYST;CORE;PRIMARY;;;;;52.87;0.01;;;;28.9;;;;;;;;0.56;;;;;12.08;0.01;0;;;;;;0.3;EMP (EPMA);;;4.53;;;;;;;;;;;;;;;;;;;;;;;;;;;;;;;;;;;;;;;;;;;;;;;;;;;;;;;;;;;;;;;;;;;;;;;;;;;;;;;;;;;;;;;;;;;;;;;;;;;;;;;;;;;;;;;;;;;;;;;;;;;;;;;;;;;;;;;;;;;;;;;;;;;;;;;;;;;;;;;;;;;;;;;;;;;;;;;;;;;;;;;;;;;;;;;;;;;;;;;;;;;;;;;;;;;;;;;;;;;;;;;;;;;;;;;;;;40;59;;;;;;;;;;;;;1;;;;;;;;;;;;;;;;;;;;
2005;[8489] LEGENDRE C.(2005)  [GeoReM [1177] ];samp. UP66;;MARQUESAS / UA POU;EAST COAST OF UA POU BETWEEN HAKAHETAU AND HIKEU;-9.42;-140;-9.42;-140;;;OUTCROP;;;SUBAERIAL;VOLCANIC ROCK;BENMOREITE;PORPHYRITIC;LAHARIC BRECCIA;;;;;;;;;;MINERAL / COMPONENT (INCL. GROUNDMASS);PLAGIOCLASE;;PHENOCRYST;CORE;PRIMARY;;;;;54.55;0.04;;;;27.84;;;;;;;;0.54;;;;;10.59;0.01;0;;;;;;0.4;EMP (EPMA);;;5.22;;;;;;;;;;;;;;;;;;;;;;;;;;;;;;;;;;;;;;;;;;;;;;;;;;;;;;;;;;;;;;;;;;;;;;;;;;;;;;;;;;;;;;;;;;;;;;;;;;;;;;;;;;;;;;;;;;;;;;;;;;;;;;;;;;;;;;;;;;;;;;;;;;;;;;;;;;;;;;;;;;;;;;;;;;;;;;;;;;;;;;;;;;;;;;;;;;;;;;;;;;;;;;;;;;;;;;;;;;;;;;;;;;;;;;;;;;47;52;;;;;;;;;;;;;1;;;;;;;;;;;;;;;;;;;;
2005;[8489] LEGENDRE C.(2005)  [GeoReM [1177] ];samp. UP66;;MARQUESAS / UA POU;EAST COAST OF UA POU BETWEEN HAKAHETAU AND HIKEU;-9.42;-140;-9.42;-140;;;OUTCROP;;;SUBAERIAL;VOLCANIC ROCK;BENMOREITE;PORPHYRITIC;LAHARIC BRECCIA;;;;;;;;;;MINERAL / COMPONENT (INCL. GROUNDMASS);TITANO-MAGNETITE;;GROUNDMASS;;PRIMARY;;;;;0.07;16.66;;;;2.14;0;;;;;;;;35.14;;44.05;;0;0.74;2.05;;;;;;;;;;0;;;;;;;;;;;;;;;;;;;;;;;;;;;;;;;;;;;;;;;;;;;;;;;;;;;;;;;;;;;;;;;;;;;;;;;;;;;;;;;;;;;;;;;;;;;;;;;;;;;;;;;;;;;;;;;;;;;;;;;;;;;;;;;;;;;;;;;;;;;;;;;;;;;;;;;;;;;;;;;;;;;;;;;;;;;;;;;;;;;;;;;;;;;;;;;;;;;;;;;;;;;;;;;;;;;;;;;;;;;;;;;;;;;;;;;;;;;;;;;;;;;;;;;;;;;;;;;;;;;;;;;;;;;;
2005;[8489] LEGENDRE C.(2005)  [GeoReM [1177] ];samp. UP66;;MARQUESAS / UA POU;EAST COAST OF UA POU BETWEEN HAKAHETAU AND HIKEU;-9.42;-140;-9.42;-140;;;OUTCROP;;;SUBAERIAL;VOLCANIC ROCK;BENMOREITE;PORPHYRITIC;LAHARIC BRECCIA;;;;;;;;;;MINERAL / COMPONENT (INCL. GROUNDMASS);AMPHIBOLE;;PHENOCRYST;CORE;PRIMARY;;;;;38.07;5.71;;;;12.46;;;;;;;;;0;;15.84;;11.42;9.66;0.28;;;;;;1.85;EMP (EPMA);;;2.44;;;1.96;;;;;;;;;;;;;;;;;;;;;;;;;;;;;;;;;;;;;;;;;;;;;;;;;;;;;;;;;;;;;;;;;;;;;;;;;;;;;;;;;;;;;;;;;;;;;;;;;;;;;;;;;;;;;;;;;;;;;;;;;;;;;;;;;;;;;;;;;;;;;;;;;;;;;;;;;;;;;;;;;;;;;;;;;;;;;;;;;;;;;;;;;;;;;;;;;;;;;;;;;;;;;;;;;;;;;;;;;;;;;;;;;;;;;;;;;;;;;;;;;;;;;;;;;;;;;;;;;;;;;;;;;
2005;[8489] LEGENDRE C.(2005)  [GeoReM [1177] ];samp. UP66;;MARQUESAS / UA POU;EAST COAST OF UA POU BETWEEN HAKAHETAU AND HIKEU;-9.42;-140;-9.42;-140;;;OUTCROP;;;SUBAERIAL;VOLCANIC ROCK;BENMOREITE;PORPHYRITIC;LAHARIC BRECCIA;;;;;;;;;;MINERAL / COMPONENT (INCL. GROUNDMASS);AMPHIBOLE;;PHENOCRYST;CORE;PRIMARY;;;;;38.76;5.71;;;;12.47;;;;;;;;;0;;15.17;;11.8;9.45;0.29;;;;;;1.94;EMP (EPMA);;;2.34;;;1.97;;;;;;;;;;;;;;;;;;;;;;;;;;;;;;;;;;;;;;;;;;;;;;;;;;;;;;;;;;;;;;;;;;;;;;;;;;;;;;;;;;;;;;;;;;;;;;;;;;;;;;;;;;;;;;;;;;;;;;;;;;;;;;;;;;;;;;;;;;;;;;;;;;;;;;;;;;;;;;;;;;;;;;;;;;;;;;;;;;;;;;;;;;;;;;;;;;;;;;;;;;;;;;;;;;;;;;;;;;;;;;;;;;;;;;;;;;;;;;;;;;;;;;;;;;;;;;;;;;;;;;;;;
2005;[8489] LEGENDRE C.(2005)  [GeoReM [1177] ];samp. UP66;;MARQUESAS / UA POU;EAST COAST OF UA POU BETWEEN HAKAHETAU AND HIKEU;-9.42;-140;-9.42;-140;;;OUTCROP;;;SUBAERIAL;VOLCANIC ROCK;BENMOREITE;PORPHYRITIC;LAHARIC BRECCIA;;;;;;;;;;MINERAL / COMPONENT (INCL. GROUNDMASS);AMPHIBOLE;;PHENOCRYST;CORE;PRIMARY;;;;;38.15;6.13;;;;13.09;;;;;;;;;0;;13.03;;11.65;10.82;0.34;;;;;;1.7;EMP (EPMA);;;2.5;;;1.98;;;;;;;;;;;;;;;;;;;;;;;;;;;;;;;;;;;;;;;;;;;;;;;;;;;;;;;;;;;;;;;;;;;;;;;;;;;;;;;;;;;;;;;;;;;;;;;;;;;;;;;;;;;;;;;;;;;;;;;;;;;;;;;;;;;;;;;;;;;;;;;;;;;;;;;;;;;;;;;;;;;;;;;;;;;;;;;;;;;;;;;;;;;;;;;;;;;;;;;;;;;;;;;;;;;;;;;;;;;;;;;;;;;;;;;;;;;;;;;;;;;;;;;;;;;;;;;;;;;;;;;;;
2005;[8490] MELLUSO L.(2005)  [GeoReM [1174] ];samp. M475;;MADAGASCAR FLOOD BASALT / MADAGASCAR / ANTAMPOMBATO-AMBATOVY COMPLEX;;-18.8051;48.3183;-18.8051;48.3183;;;OUTCROP;;;SUBAERIAL;VOLCANIC ROCK;BENMOREITE;PORPHYRITIC;DIKE;;;CRETACEOUS;;;;;;;WHOLE ROCK;;;;;;;;;;61.46;1.39;;;;15.57;;;;;;;;5.97;;;;;3.84;2.74;0.24;;;;;;1.96;XRF;;;5.84;0.55;;;;;;;;;;;;0.46;;;;;2.95;;;;;;;;;;;;;;;;;;;;5;XRF;;;;76;XRF;78;ICPMS;8;XRF;7;ICPMS;8;ICPMS;;;20;XRF;13;ICPMS;5;XRF;12;ICPMS;142;XRF;166;ICPMS;27.8;ICPMS;;;1.6;;;;42;XRF;42;ICPMS;42;TIMS_ID;351;XRF;349.7;ICPMS;350;TIMS_ID;70;XRF;68.8;ICPMS;395;XRF;413.5;ICPMS;58.8;XRF;58.8;ICPMS;2.53;;;0.13;3.2;;;;;;0.41;ICPMS;;;722;XRF;700;ICPMS;54.3;ICPMS;;;119.32;ICPMS;;;14.83;61.84;ICPMS;61.84;TIMS_ID;;;14.01;ICPMS;14.01;TIMS_ID;4.2;ICPMS;;;13.21;ICPMS;;;1.93;ICPMS;;;12.41;ICPMS;;;2.54;6.47;ICPMS;;;0.93;6.46;ICPMS;;;1.07;11.83;3.75;0.84;;;;;;6.17;ICPMS;;;;;;7.71;ICPMS;;;1.83;ICPMS;;;0.51288;;;;0.137;0.703956;;;0.347;;;;;;;;;;;;;;;;;;;;;;;;;;;;;;;;;;;;;;;;;;;;;;;;;;;;;;;;;;;;;;;;;;;;;;;;;;
1999;[8582] CHERNET T. (1999);samp. 2C4;;EAST AFRICAN RIFT / ETHIOPIAN RIFT / MAIN ETHIOPIAN RIFT / WECHECHA / WECHECHA FORMATION;ADDIS ABABA REGION;9;38.7;9;38.7;;;OUTCROP;;;SUBAERIAL;VOLCANIC ROCK;BENMOREITE;;;;;PLIOCENE;;;;;;;WHOLE ROCK;;;;;;;;;;56.24;2.04;;;;15.32;;;;;;;;8.81;;;;;4.2;2.14;0.25;;;;;;3.07;DCPAES;;;5.45;0.91;;;;;;;;;;;;-0.03;;;;;;;;;;;;;;;;;;;;;;;;;22;DCPAES;;;;57;DCPAES;;;;;;;;;;;7;DCPAES;;;4;DCPAES;;;155;DCPAES;;;;;;;;;;;78.9;TIMS_ID;;;;;530;DCPAES;;;;;64;DCPAES;;;470;DCPAES;;;104;DCPAES;;;;;;;;;;;;;;;;;1118;DCPAES;;;83;DCPAES;;;170;DCPAES;;;;69;DCPAES;;;;;11;DCPAES;;;3.1;DCPAES;;;10;DCPAES;;;;;;;9.6;DCPAES;;;;5.3;DCPAES;;;;4.8;DCPAES;;;0.7;;;;;;;;;;;;;;;;;;;;;;;;0.51282;;;;;0.70389;;;;;;;;;;;;;;;;;;;;;;;;;;;;;;;;;;;;;;;;;;;;;;;;;;;;;;;;;;;;;;;;;;;;;;;;;;;;;
1981;[8625] KYLE P. R. (1981);samp. 2-61.23;126815;ROSS ISLAND / ROSS ISLAND / MOUNT EREBUS;DRY VALLEY DRILLING PROJECT 2, HUT POINT PENINSULA, SSW FROM MOUNT EREBUS, MCMURDO VOLCANIC GROUP;-77.84;167.15;-77.84;167.15;;;DRILL HOLE ;;;SUBAERIAL;VOLCANIC ROCK;BENMOREITE, NEPHELINE;;;;;CENOZOIC;;;;;;;WHOLE ROCK;;;;;;;;;;51.9;1.85;;;;19.31;;;;;;;;;3.01;;3.96;;5.43;2.07;0.2;;;;;;3.7;XRF;;;7.26;0.6;;;;;;;;;;;;0;;;;;;;;;;;;;;;;;;;;;;;;;;;;;;77;XRF;;;15;XRF;;;;;;;8;XRF;;;15;XRF;;;109;XRF;;;;;;;;;;;97;XRF;;;;;1194;XRF;;;;;;;;;;;;;;;;;;;;;;;;;;;;;;;695;XRF;;;;;;;;;;;;;;;;;;;;;;;;;;;;;;;;;;;;;;;;;;;;;;;;;;;;;;;;;;;;;;;;;;;;;;;;;;;;;;;;;;;;;;;;;;;;;;;;;;;;;;;;;;;;;;;;;;;;;;;;;;;;;;;;;;;;;;;;;;;;;;;;;;;;;;;;;;
1981;[8625] KYLE P. R. (1981);samp. 1-87.76;;ROSS ISLAND / ROSS ISLAND / MOUNT EREBUS;DRY VALLEY DRILLING PROJECT 1, HUT POINT PENINSULA, SSW FROM MOUNT EREBUS, MCMURDO VOLCANIC GROUP;-77.84;167.15;-77.84;167.15;;;DRILL HOLE ;;;SUBAERIAL;VOLCANIC ROCK;BENMOREITE, NEPHELINE;MICROPORPHYRITIC;;;;CENOZOIC;;;;;;;WHOLE ROCK;;;;;;;;;;52.32;1.62;;;;19.55;;;;;;;;;4.45;;2.15;;4.99;1.81;0.2;;;;;;3.95;XRF;;;7.48;0.47;;;;;;;;;;;;0.65;;;;;;;;;;;;;;;;;;;;;;;;;;;;;;68;XRF;;;17;XRF;;;;;;;7;XRF;;;14;XRF;;;97;XRF;;;;;;;;;;;98;XRF;;;;;1256;XRF;;;;;;;;;;;;;;;;;;;;;;;;;;;;;;;739;XRF;;;;;;;;;;;;;;;;;;;;;;;;;;;;;;;;;;;;;;;;;;;;;;;;;;;;;;;;;;;;;;;;;;;;;;;;;;;;;;;;;;;;;;;;;;;;;;;;;;;;;;;;;;;;;;;;;;;;;;;;;;;;;;;;;;;;;;;;;;;;;;;;;;;;;;;;;;
1981;[8625] KYLE P. R. (1981);samp. 1-60.49;;ROSS ISLAND / ROSS ISLAND / MOUNT EREBUS;DRY VALLEY DRILLING PROJECT 1, HUT POINT PENINSULA, SSW FROM MOUNT EREBUS, MCMURDO VOLCANIC GROUP;-77.84;167.15;-77.84;167.15;;;DRILL HOLE ;;;SUBAERIAL;VOLCANIC ROCK;BENMOREITE;MICROPORPHYRITIC;;;;CENOZOIC;;;;;;;WHOLE ROCK;;;;;;;;;;53.08;1.58;;;;19.77;;;;;;;;;2.7;;3.45;;4.69;1.67;0.2;;;;;;4.15;XRF;;;7.58;0.42;;;;;;;;;;;;0.34;;;;;;;;;;;;;;;;;;;;;;;;;;;;;;73;XRF;;;13;XRF;;;;;;;6;XRF;;;16;XRF;;;112;XRF;;;;;;;;;;;110;XRF;;;;;1049;XRF;;;;;;;;;;;;;;;;;;;;;;;;;;;;;;;716;XRF;;;;;;;;;;;;;;;;;;;;;;;;;;;;;;;;;;;;;;;;;;;;;;;;;;;;;;;;;;;;;;;;;;;;;;;;;;;;;;;;;;;;;;;;;;;;;;;;;;;;;;;;;;;;;;;;;;;;;;;;;;;;;;;;;;;;;;;;;;;;;;;;;;;;;;;;;;
1981;[8625] KYLE P. R. (1981);samp. 1-134.03;;ROSS ISLAND / ROSS ISLAND / MOUNT EREBUS;DRY VALLEY DRILLING PROJECT 1, HUT POINT PENINSULA, SSW FROM MOUNT EREBUS, MCMURDO VOLCANIC GROUP;-77.84;167.15;-77.84;167.15;;;DRILL HOLE ;;;SUBAERIAL;VOLCANIC ROCK;BENMOREITE;PILOTAXITIC;;;;CENOZOIC;;;;;;;WHOLE ROCK;;;;;;;;;;55.78;1.29;;;;19;;;;;;;;;3.59;;2.46;;4.33;1.76;0.2;;;;;;3.64;XRF;;;7;0.4;;;;;;;;;;;;0.09;;;;;;;;;;;;;;;;;;;;;;;;;;;;;;54;XRF;;;33;XRF;;;;;;;15;XRF;;;14;XRF;;;108;XRF;;;;;;;;;;;113;XRF;;;;;912;XRF;;;;;;;;;;;;;;;;;;;;;;;;;;;;;;;728;XRF;;;;;;;;;;;;;;;;;;;;;;;;;;;;;;;;;;;;;;;;;;;;;;;;;;;;;;;;;;;;;;;;;;;;;;;;;;;;;;;;;;;;;;;;;;;;;;;;;;;;;;;;;;;;;;;;;;;;;;;;;;;;;;;;;;;;;;;;;;;;;;;;;;;;;;;;;;
1981;[8625] KYLE P. R. (1981);samp. 1-134.03;;ROSS ISLAND / ROSS ISLAND / MOUNT EREBUS;DRY VALLEY DRILLING PROJECT 1, HUT POINT PENINSULA, SSW FROM MOUNT EREBUS, MCMURDO VOLCANIC GROUP;-77.84;167.15;-77.84;167.15;;;DRILL HOLE ;;;SUBAERIAL;VOLCANIC ROCK;BENMOREITE;PILOTAXITIC;;;;CENOZOIC;;;;;;;MINERAL / COMPONENT (INCL. GROUNDMASS);OLIVINE;;XENOCRYST;;PRIMARY;;;;;37.8;0.04;;;;0.06;;;;;;;;;;22.2;;;0.43;38;1.05;;;;;;;;;;;;;;;;;;;;;;;;;;;;;;;;;;;;;;;;;;;;;;;;;;;;;;;;;;;;;;;;;;;;;;;;;;;;;;;;;;;;;;;;;;;;;;;;;;;;;;;;;;;;;;;;;;;;;;;;;;;;;;;;;;;;;;;;;;;;;;;;;;;;;;;;;;;;;;;;;;;;;;;;;;;;;;;;;;;;;;;;;;;;;;;;;;;;;;;;;;;;;;;;;;;;;;;;;;;;;;;;;;;;;;;;;;;;;;;;;;;;;;;;;;;;;;;;;;;;;;;;;;;;;;;;;;;;;;
1981;[8625] KYLE P. R. (1981);samp. 1-60.49;;ROSS ISLAND / ROSS ISLAND / MOUNT EREBUS;DRY VALLEY DRILLING PROJECT 1, HUT POINT PENINSULA, SSW FROM MOUNT EREBUS, MCMURDO VOLCANIC GROUP;-77.84;167.15;-77.84;167.15;;;DRILL HOLE ;;;SUBAERIAL;VOLCANIC ROCK;BENMOREITE;MICROPORPHYRITIC;;;;CENOZOIC;;;;;;;MINERAL / COMPONENT (INCL. GROUNDMASS);CLINOPYROXENE;;GROUNDMASS;;PRIMARY;;;;;48.3;1.65;;;;4.14;;;;;;;;;5.22;9.12;4.42;;22.8;12.4;0.41;;;;;;;;;;0.79;;;;;;;;;;;;;;;;;;;;;;;;;;;;;;;;;;;;;;;;;;;;;;;;;;;;;;;;;;;;;;;;;;;;;;;;;;;;;;;;;;;;;;;;;;;;;;;;;;;;;;;;;;;;;;;;;;;;;;;;;;;;;;;;;;;;;;;;;;;;;;;;;;;;;;;;;;;;;;;;;;;;;;;;;;;;;;;;;;;;;;;;;;;;;;;;;;;;;;;;;;;;;;;;;;;;;;;;;;;;;;;;;;;;;;;;;;;;;;42.7;;;9.3;;;;;;;;;;;;48;;;;;;;;;;;;;;;
1981;[8625] KYLE P. R. (1981);samp. 1-87.76;;ROSS ISLAND / ROSS ISLAND / MOUNT EREBUS;DRY VALLEY DRILLING PROJECT 1, HUT POINT PENINSULA, SSW FROM MOUNT EREBUS, MCMURDO VOLCANIC GROUP;-77.84;167.15;-77.84;167.15;;;DRILL HOLE ;;;SUBAERIAL;VOLCANIC ROCK;BENMOREITE, NEPHELINE;MICROPORPHYRITIC;;;;CENOZOIC;;;;;;;MINERAL / COMPONENT (INCL. GROUNDMASS);CLINOPYROXENE;;GROUNDMASS;;PRIMARY;;;;;46;2.37;;;;7.2;;;;;;;;;3.07;13.5;10.74;;21.2;7.58;0.48;;;;;;;;;;1.13;;;;;;;;;;;;;;;;;;;;;;;;;;;;;;;;;;;;;;;;;;;;;;;;;;;;;;;;;;;;;;;;;;;;;;;;;;;;;;;;;;;;;;;;;;;;;;;;;;;;;;;;;;;;;;;;;;;;;;;;;;;;;;;;;;;;;;;;;;;;;;;;;;;;;;;;;;;;;;;;;;;;;;;;;;;;;;;;;;;;;;;;;;;;;;;;;;;;;;;;;;;;;;;;;;;;;;;;;;;;;;;;;;;;;;;;;;;;;;28.9;;;24;;;;;;;;;;;;47.1;;;;;;;;;;;;;;;
1981;[8625] KYLE P. R. (1981);samp. 2-61.23;126815;ROSS ISLAND / ROSS ISLAND / MOUNT EREBUS;DRY VALLEY DRILLING PROJECT 2, HUT POINT PENINSULA, SSW FROM MOUNT EREBUS, MCMURDO VOLCANIC GROUP;-77.84;167.15;-77.84;167.15;;;DRILL HOLE ;;;SUBAERIAL;VOLCANIC ROCK;BENMOREITE, NEPHELINE;;;;;CENOZOIC;;;;;;;MINERAL / COMPONENT (INCL. GROUNDMASS);CLINOPYROXENE;;;;PRIMARY;;;;;49.3;1.69;;;;3.76;;;;;;;;;3.74;8.09;4.72;;22.6;13;0.37;;;;;;;;;;0.7;;;;;;;;;;;;;;;;;;;;;;;;;;;;;;;;;;;;;;;;;;;;;;;;;;;;;;;;;;;;;;;;;;;;;;;;;;;;;;;;;;;;;;;;;;;;;;;;;;;;;;;;;;;;;;;;;;;;;;;;;;;;;;;;;;;;;;;;;;;;;;;;;;;;;;;;;;;;;;;;;;;;;;;;;;;;;;;;;;;;;;;;;;;;;;;;;;;;;;;;;;;;;;;;;;;;;;;;;;;;;;;;;;;;;;;;;;;;;;43.2;;;9.4;;;;;;;;;;;;47.7;;;;;;;;;;;;;;;
1981;[8625] KYLE P. R. (1981);samp. 2-61.23;126815;ROSS ISLAND / ROSS ISLAND / MOUNT EREBUS;DRY VALLEY DRILLING PROJECT 2, HUT POINT PENINSULA, SSW FROM MOUNT EREBUS, MCMURDO VOLCANIC GROUP;-77.84;167.15;-77.84;167.15;;;DRILL HOLE ;;;SUBAERIAL;VOLCANIC ROCK;BENMOREITE, NEPHELINE;;;;;CENOZOIC;;;;;;;MINERAL / COMPONENT (INCL. GROUNDMASS);CLINOPYROXENE;;;;PRIMARY;;;;;44.8;3.96;;;;7.57;;;;;;;;;4.18;9.7;5.94;;22.3;10.3;0.27;;;;;;;;;;0.86;;;;;;;;;;;;;;;;;;;;;;;;;;;;;;;;;;;;;;;;;;;;;;;;;;;;;;;;;;;;;;;;;;;;;;;;;;;;;;;;;;;;;;;;;;;;;;;;;;;;;;;;;;;;;;;;;;;;;;;;;;;;;;;;;;;;;;;;;;;;;;;;;;;;;;;;;;;;;;;;;;;;;;;;;;;;;;;;;;;;;;;;;;;;;;;;;;;;;;;;;;;;;;;;;;;;;;;;;;;;;;;;;;;;;;;;;;;;;;39.1;;;13.2;;;;;;;;;;;;47.6;;;;;;;;;;;;;;;
1981;[8625] KYLE P. R. (1981);samp. 1-134.03;;ROSS ISLAND / ROSS ISLAND / MOUNT EREBUS;DRY VALLEY DRILLING PROJECT 1, HUT POINT PENINSULA, SSW FROM MOUNT EREBUS, MCMURDO VOLCANIC GROUP;-77.84;167.15;-77.84;167.15;;;DRILL HOLE ;;;SUBAERIAL;VOLCANIC ROCK;BENMOREITE;PILOTAXITIC;;;;CENOZOIC;;;;;;;MINERAL / COMPONENT (INCL. GROUNDMASS);CLINOPYROXENE;;;;PRIMARY;;;;;49.9;1.31;;;;3.07;;;;;;;;;3.63;8.14;4.87;;22.4;13.6;0.45;;;;;;;;;;0.56;;;;;;;;;;;;;;;;;;;;;;;;;;;;;;;;;;;;;;;;;;;;;;;;;;;;;;;;;;;;;;;;;;;;;;;;;;;;;;;;;;;;;;;;;;;;;;;;;;;;;;;;;;;;;;;;;;;;;;;;;;;;;;;;;;;;;;;;;;;;;;;;;;;;;;;;;;;;;;;;;;;;;;;;;;;;;;;;;;;;;;;;;;;;;;;;;;;;;;;;;;;;;;;;;;;;;;;;;;;;;;;;;;;;;;;;;;;;;;44;;;9.6;;;;;;;;;;;;46.4;;;;;;;;;;;;;;;
1981;[8625] KYLE P. R. (1981);samp. 1-60.49;;ROSS ISLAND / ROSS ISLAND / MOUNT EREBUS;DRY VALLEY DRILLING PROJECT 1, HUT POINT PENINSULA, SSW FROM MOUNT EREBUS, MCMURDO VOLCANIC GROUP;-77.84;167.15;-77.84;167.15;;;DRILL HOLE ;;;SUBAERIAL;VOLCANIC ROCK;BENMOREITE;MICROPORPHYRITIC;;;;CENOZOIC;;;;;;;MINERAL / COMPONENT (INCL. GROUNDMASS);KAERSUTITE;;GROUNDMASS;;PRIMARY;;;;;38.8;6.34;;;;13.6;;;;;;;;;;11.2;;;11.7;12.35;0.17;;;;;;1.38;EMP (EPMA);;;2.78;;;;;;;;;;;;;;;;;;;;;;;;;;;;;;;;;;;;;;;;;;;;;;;;;;;;;;;;;;;;;;;;;;;;;;;;;;;;;;;;;;;;;;;;;;;;;;;;;;;;;;;;;;;;;;;;;;;;;;;;;;;;;;;;;;;;;;;;;;;;;;;;;;;;;;;;;;;;;;;;;;;;;;;;;;;;;;;;;;;;;;;;;;;;;;;;;;;;;;;;;;;;;;;;;;;;;;;;;;;;;;;;;;;;;;;;;;;;;;;;;;;;;;;;;;;;;;;;;;;;;;;;;;;;