Year;CITATION;SAMPLE NAME;UNIQUE_ID;LOCATION;LOCATION COMMENT;LATITUDE (MIN.);LONGITUDE (MIN.);LATITUDE (MAX.);LONGITUDE (MAX.);ELEVATION (MIN.);ELEVATION (MAX.);SAMPLING TECHNIQUE;DRILLING DEPTH (MIN.);DRILLING DEPTH (MAX.);LAND/SEA (SAMPLING);ROCK TYPE;ROCK NAME;ROCK TEXTURE;SAMPLE COMMENT;AGE (MIN.);AGE (MAX.);GEOLOGICAL AGE;GEOLOGICAL AGE PREFIX;ERUPTION DAY;ERUPTION MONTH;ERUPTION YEAR;ALTERATION;ALTERATION TYPE;TYPE OF MATERIAL;MINERAL / COMPONENT;SPOT (MINERAL);CRYSTAL;RIM / CORE (MINERAL GRAINS);PRIMARY/SECONDARY;INCLUSION TYPE;MINERAL (INCLUSION);HOSTMINERAL (INCLUSION);HEATING;SIO2(WT%);TIO2(WT%);ZRO2(WT%);HFO2(WT%);THO2(WT%);AL2O3(WT%);CR2O3(WT%);LA2O3(WT%);CE2O3(WT%);ND2O3(WT%);SM2O3(WT%);V2O3(WT%);NB2O5(WT%);FE2O3T(WT%);FE2O3(WT%);FEOT(WT%);FEO(WT%);FET(WT%);CAO(WT%);MGO(WT%);MNO(WT%);BAO(WT%);SRO(WT%);NIO(WT%);ZNO(WT%);RB2O(WT%);K2O(WT%);;;;NA2O(WT%);P2O5(WT%);AS2O5(WT%);H2O(WT%);H2OP(WT%);H2OM(WT%);CO2(WT%);C(WT%);F(WT%);CL(WT%);OH(WT%);SO3(WT%);S(WT%);LOI(WT%);TI(WT%);CA(WT%);K(WT%);LI(PPM);BE(PPM);B(PPM);F(PPM);P(PPM);S(PPM);CL(PPM);AR40(AT/G);;;;AR40(CCMSTP/G);;;;AR40(MOL/G);;;;AR40(PPB);K(PPM);SC(PPM);;;;TI(PPM);V(PPM);;;;CR(PPM);;;;CO(PPM);;;;NI(PPM);;;;CU(PPM);;;;ZN(PPM);;;;GA(PPM);;;;GE(PPM);AS(PPM);AS(PPB);SE(PPM);RB(PPM);;;;;;SR(PPM);;;;;;Y(PPM);;;;ZR(PPM);;;;NB(PPM);;;;MO(PPM);AG(PPM);CD(PPM);IN(PPM);SN(PPM);SB(PPM): altern. values or methods;;;;TE(PPM);CS(PPM): altern. values or methods;;;;BA(PPM): altern. values or methods;;;;LA(PPM): altern. values or methods;;;;CE(PPM): altern. values or methods;;;;PR(PPM);ND(PPM): altern. values or methods;;;;;;SM(PPM): altern. values or methods;;;;EU(PPM): altern. values or methods;;;;GD(PPM): altern. values or methods;;;;TB(PPM): altern. values or methods;;;;DY(PPM): altern. values or methods;;;;HO(PPM);ER(PPM): altern. values or methods;;;;TM(PPM);YB(PPM): altern. values or methods;;;;LU(PPM);HF(PPM);TA(PPM);W(PPM);RE(PPM);AU(PPM);HG(PPM);HG(PPB);TL(PPM);PB(PPM): altern. values or methods;;;;BI(PPM);PO210_ACT(DPM/G);RA226_ACT(DPM/G);TH(PPM): altern. values or methods;;;;U(PPM): altern. values or methods;;;;ND143_ND144;ND143_ND144_INI;EPSILON_ND;EPSILON_ND_INI;SM147_ND144;SR87_SR86;SR87_SR86_INI;EPSILON_SR_INI;RB87_SR86;PB206_PB204: altern. values or methods;;;;PB206_PB204_INI;PB207_PB204: altern. values or methods;;;;PB207_PB204_INI;PB207_PB206;PB208_PB204: altern. values or methods;;;;PB208_PB204_INI;PB208_PB206;HF176_HF177;LU176_HF177;AR38_AR36;AR40_AR36;AR40_AR36_INI;PB206_U238;PB207_U235;RA226_TH230_ACT;PA231_U235_ACT;TH230_TH232_ACT;TH230_U238_ACT;TH232_PB204;U234_U238_ACT;U235_PB204;U238_PB204;U238_TH232_ACT;D7LI(VS LSVEC);D13C(VS PDB);D18O(PER MIL);D18O(VS SMOW);D18O(VS VSMOW);D34S(VS VCDT);ALBITE(MOL%);ANORTHITE(MOL%);CA OLIVINE(MOL%);CHROMITE(MOL%);ENSTATITE(MOL%);FAYALITE(MOL%);FORSTERITE(MOL%);FERROSILITE(MOL%);HEMATITE(MOL%);HERCYNITE(MOL%);ILMENITE(MOL%);MAGNESIOFERRITE(MOL%);MONTICELLITE(MOL%);MAGNETITE(MOL%);ORTHOCLASE(MOL%);PICROCHROMITE(MOL%);SPINEL(MOL%);TEPHROITE(MOL%);ULVOSPINEL(MOL%);WOLLASTONITE(MOL%);AGE(KA): altern. values or methods;;;;;;AGE(MA): altern. values or methods;;;;;;AGE_PB207_U235(MA);AGE_PB206_U238(MA);
2008;[12263] MACDONALD R.(2008)  [GeoReM [4079] ];samp. BB85.278;;EAST AFRICAN RIFT / KENYA RIFT (EASTERN EAST AFRICAN RIFT) / SOUTHERN KENYA RIFT / GREATER OLKARIA(NAIVASHA);;-0.72;36.43;-0.72;36.43;;;OUTCROP;;;SUBAERIAL;VOLCANIC ROCK;BENMOREITE;;LAVA;0;20000;QUATERNARY;;;;;;;MINERAL / COMPONENT (INCL. GROUNDMASS);CLINOPYROXENE;C3;PHENOCRYST;CORE;PRIMARY;;;;;49.51;1.63;;;;3.64;0;;;;;;;;;11;;;19.07;13.19;0.28;;;0;;;;;;;0.43;;;;;;;;;;;;;;;;;;;;;;;;;;;;;;;;;;;;;;;;;;;;;;;;;;;;;;;;;;;;;;;;;;;;;;;;;;;;;;;;;;;;;;;;;;;;;;;;;;;;;;;;;;;;;;;;;;;;;;;;;;;;;;;;;;;;;;;;;;;;;;;;;;;;;;;;;;;;;;;;;;;;;;;;;;;;;;;;;;;;;;;;;;;;;;;;;;;;;;;;;;;;;;;;;;;;;;;;;;;;;;;;;;;;;;;;;;;;;;39.9;;;18.7;;;;;;;;;;;;41.4;;;;;;;;;;;;;;;
2008;[12263] MACDONALD R.(2008)  [GeoReM [4079] ];samp. BB85.278;;EAST AFRICAN RIFT / KENYA RIFT (EASTERN EAST AFRICAN RIFT) / SOUTHERN KENYA RIFT / GREATER OLKARIA(NAIVASHA);;-0.72;36.43;-0.72;36.43;;;OUTCROP;;;SUBAERIAL;VOLCANIC ROCK;BENMOREITE;;LAVA;0;20000;QUATERNARY;;;;;;;MINERAL / COMPONENT (INCL. GROUNDMASS);CLINOPYROXENE;C2;PHENOCRYST;INTERMEDIATE ZONE;PRIMARY;;;;;49.35;1.74;;;;3.49;0;;;;;;;;;11.48;;;19.45;12.61;0.31;;;0.03;;;;;;;0.43;;;;;;;;;;;;;;;;;;;;;;;;;;;;;;;;;;;;;;;;;;;;;;;;;;;;;;;;;;;;;;;;;;;;;;;;;;;;;;;;;;;;;;;;;;;;;;;;;;;;;;;;;;;;;;;;;;;;;;;;;;;;;;;;;;;;;;;;;;;;;;;;;;;;;;;;;;;;;;;;;;;;;;;;;;;;;;;;;;;;;;;;;;;;;;;;;;;;;;;;;;;;;;;;;;;;;;;;;;;;;;;;;;;;;;;;;;;;;;38.2;;;19.5;;;;;;;;;;;;42.3;;;;;;;;;;;;;;;
2008;[12263] MACDONALD R.(2008)  [GeoReM [4079] ];samp. BB85.278;;EAST AFRICAN RIFT / KENYA RIFT (EASTERN EAST AFRICAN RIFT) / SOUTHERN KENYA RIFT / GREATER OLKARIA(NAIVASHA);;-0.72;36.43;-0.72;36.43;;;OUTCROP;;;SUBAERIAL;VOLCANIC ROCK;BENMOREITE;;LAVA;0;20000;QUATERNARY;;;;;;;MINERAL / COMPONENT (INCL. GROUNDMASS);CLINOPYROXENE;E3;PHENOCRYST;CORE;PRIMARY;;;;;51.69;0.95;;;;1.82;0;;;;;;;;;10.92;;;18.77;14.11;0.31;;;0;;;;;;;0.27;;;;;;;;;;;;;;;;;;;;;;;;;;;;;;;;;;;;;;;;;;;;;;;;;;;;;;;;;;;;;;;;;;;;;;;;;;;;;;;;;;;;;;;;;;;;;;;;;;;;;;;;;;;;;;;;;;;;;;;;;;;;;;;;;;;;;;;;;;;;;;;;;;;;;;;;;;;;;;;;;;;;;;;;;;;;;;;;;;;;;;;;;;;;;;;;;;;;;;;;;;;;;;;;;;;;;;;;;;;;;;;;;;;;;;;;;;;;;;41.8;;;18.2;;;;;;;;;;;;40;;;;;;;;;;;;;;;
2008;[12263] MACDONALD R.(2008)  [GeoReM [4079] ];samp. BB85.278;;EAST AFRICAN RIFT / KENYA RIFT (EASTERN EAST AFRICAN RIFT) / SOUTHERN KENYA RIFT / GREATER OLKARIA(NAIVASHA);;-0.72;36.43;-0.72;36.43;;;OUTCROP;;;SUBAERIAL;VOLCANIC ROCK;BENMOREITE;;LAVA;0;20000;QUATERNARY;;;;;;;MINERAL / COMPONENT (INCL. GROUNDMASS);CLINOPYROXENE;E2;PHENOCRYST;CORE;PRIMARY;;;;;46.33;2.77;;;;5.57;0.01;;;;;;;;;12.23;;;18.59;12.16;0.3;;;0;;;;;;;0.5;;;;;;;;;;;;;;;;;;;;;;;;;;;;;;;;;;;;;;;;;;;;;;;;;;;;;;;;;;;;;;;;;;;;;;;;;;;;;;;;;;;;;;;;;;;;;;;;;;;;;;;;;;;;;;;;;;;;;;;;;;;;;;;;;;;;;;;;;;;;;;;;;;;;;;;;;;;;;;;;;;;;;;;;;;;;;;;;;;;;;;;;;;;;;;;;;;;;;;;;;;;;;;;;;;;;;;;;;;;;;;;;;;;;;;;;;;;;;;37.5;;;21.2;;;;;;;;;;;;41.3;;;;;;;;;;;;;;;
2008;[12263] MACDONALD R.(2008)  [GeoReM [4079] ];samp. BB85.278;;EAST AFRICAN RIFT / KENYA RIFT (EASTERN EAST AFRICAN RIFT) / SOUTHERN KENYA RIFT / GREATER OLKARIA(NAIVASHA);;-0.72;36.43;-0.72;36.43;;;OUTCROP;;;SUBAERIAL;VOLCANIC ROCK;BENMOREITE;;LAVA;0;20000;QUATERNARY;;;;;;;MINERAL / COMPONENT (INCL. GROUNDMASS);CLINOPYROXENE;E1;PHENOCRYST;RIM;PRIMARY;;;;;49.21;1.67;;;;3.92;0.01;;;;;;;;;10.82;;;20.16;12.29;0.25;;;0.02;;;;;;;0.48;;;;;;;;;;;;;;;;;;;;;;;;;;;;;;;;;;;;;;;;;;;;;;;;;;;;;;;;;;;;;;;;;;;;;;;;;;;;;;;;;;;;;;;;;;;;;;;;;;;;;;;;;;;;;;;;;;;;;;;;;;;;;;;;;;;;;;;;;;;;;;;;;;;;;;;;;;;;;;;;;;;;;;;;;;;;;;;;;;;;;;;;;;;;;;;;;;;;;;;;;;;;;;;;;;;;;;;;;;;;;;;;;;;;;;;;;;;;;;37.4;;;18.5;;;;;;;;;;;;44.1;;;;;;;;;;;;;;;
2008;[12263] MACDONALD R.(2008)  [GeoReM [4079] ];samp. BB85.278;;EAST AFRICAN RIFT / KENYA RIFT (EASTERN EAST AFRICAN RIFT) / SOUTHERN KENYA RIFT / GREATER OLKARIA(NAIVASHA);;-0.72;36.43;-0.72;36.43;;;OUTCROP;;;SUBAERIAL;VOLCANIC ROCK;BENMOREITE;;LAVA;0;20000;QUATERNARY;;;;;;;MINERAL / COMPONENT (INCL. GROUNDMASS);CLINOPYROXENE;G3;PHENOCRYST;CORE;PRIMARY;;;;;49.27;1.5;;;;3.48;0.01;;;;;;;;;13.67;;;18.18;12.06;0.42;;;0;;;;;;;0.42;;;;;;;;;;;;;;;;;;;;;;;;;;;;;;;;;;;;;;;;;;;;;;;;;;;;;;;;;;;;;;;;;;;;;;;;;;;;;;;;;;;;;;;;;;;;;;;;;;;;;;;;;;;;;;;;;;;;;;;;;;;;;;;;;;;;;;;;;;;;;;;;;;;;;;;;;;;;;;;;;;;;;;;;;;;;;;;;;;;;;;;;;;;;;;;;;;;;;;;;;;;;;;;;;;;;;;;;;;;;;;;;;;;;;;;;;;;;;;36.8;;;23.4;;;;;;;;;;;;39.8;;;;;;;;;;;;;;;
2008;[12263] MACDONALD R.(2008)  [GeoReM [4079] ];samp. BB85.278;;EAST AFRICAN RIFT / KENYA RIFT (EASTERN EAST AFRICAN RIFT) / SOUTHERN KENYA RIFT / GREATER OLKARIA(NAIVASHA);;-0.72;36.43;-0.72;36.43;;;OUTCROP;;;SUBAERIAL;VOLCANIC ROCK;BENMOREITE;;LAVA;0;20000;QUATERNARY;;;;;;;MINERAL / COMPONENT (INCL. GROUNDMASS);CLINOPYROXENE;G2;PHENOCRYST;INTERMEDIATE ZONE;PRIMARY;;;;;49.94;1.46;;;;3.31;0.01;;;;;;;;;11.34;;;19.34;13.02;0.31;;;0.01;;;;;;;0.41;;;;;;;;;;;;;;;;;;;;;;;;;;;;;;;;;;;;;;;;;;;;;;;;;;;;;;;;;;;;;;;;;;;;;;;;;;;;;;;;;;;;;;;;;;;;;;;;;;;;;;;;;;;;;;;;;;;;;;;;;;;;;;;;;;;;;;;;;;;;;;;;;;;;;;;;;;;;;;;;;;;;;;;;;;;;;;;;;;;;;;;;;;;;;;;;;;;;;;;;;;;;;;;;;;;;;;;;;;;;;;;;;;;;;;;;;;;;;;39.1;;;19.1;;;;;;;;;;;;41.8;;;;;;;;;;;;;;;
2008;[12263] MACDONALD R.(2008)  [GeoReM [4079] ];samp. BB85.278;;EAST AFRICAN RIFT / KENYA RIFT (EASTERN EAST AFRICAN RIFT) / SOUTHERN KENYA RIFT / GREATER OLKARIA(NAIVASHA);;-0.72;36.43;-0.72;36.43;;;OUTCROP;;;SUBAERIAL;VOLCANIC ROCK;BENMOREITE;;LAVA;0;20000;QUATERNARY;;;;;;;MINERAL / COMPONENT (INCL. GROUNDMASS);CLINOPYROXENE;G1;PHENOCRYST;RIM;PRIMARY;;;;;44.82;2.86;;;;7.04;0;;;;;;;;;13.68;;;19.07;9.97;0.34;;;0.02;;;;;;;0.56;;;;;;;;;;;;;;;;;;;;;;;;;;;;;;;;;;;;;;;;;;;;;;;;;;;;;;;;;;;;;;;;;;;;;;;;;;;;;;;;;;;;;;;;;;;;;;;;;;;;;;;;;;;;;;;;;;;;;;;;;;;;;;;;;;;;;;;;;;;;;;;;;;;;;;;;;;;;;;;;;;;;;;;;;;;;;;;;;;;;;;;;;;;;;;;;;;;;;;;;;;;;;;;;;;;;;;;;;;;;;;;;;;;;;;;;;;;;;;31.8;;;24.5;;;;;;;;;;;;43.7;;;;;;;;;;;;;;;
2008;[12263] MACDONALD R.(2008)  [GeoReM [4079] ];samp. BB85.40;;EAST AFRICAN RIFT / KENYA RIFT (EASTERN EAST AFRICAN RIFT) / SOUTHERN KENYA RIFT / GREATER OLKARIA(NAIVASHA);;-0.72;36.43;-0.72;36.43;;;OUTCROP;;;SUBAERIAL;VOLCANIC ROCK;BENMOREITE;;DIKE;0;20000;QUATERNARY;;;;;;;MINERAL / COMPONENT (INCL. GROUNDMASS);CLINOPYROXENE;A1;PHENOCRYST;CORE;PRIMARY;;;;;49.95;0.83;;;;1.14;;;;;;;;;;20.03;;;19.98;7.24;0.78;;;0;;;;;;;0.28;;;;;;;;;;;;;;;;;;;;;;;;;;;;;;;;;;;;;;;;;;;;;;;;;;;;;;;;;;;;;;;;;;;;;;;;;;;;;;;;;;;;;;;;;;;;;;;;;;;;;;;;;;;;;;;;;;;;;;;;;;;;;;;;;;;;;;;;;;;;;;;;;;;;;;;;;;;;;;;;;;;;;;;;;;;;;;;;;;;;;;;;;;;;;;;;;;;;;;;;;;;;;;;;;;;;;;;;;;;;;;;;;;;;;;;;;;;;;;22;;;34.2;;;;;;;;;;;;43.7;;;;;;;;;;;;;;;
2008;[12263] MACDONALD R.(2008)  [GeoReM [4079] ];samp. BB85.40;;EAST AFRICAN RIFT / KENYA RIFT (EASTERN EAST AFRICAN RIFT) / SOUTHERN KENYA RIFT / GREATER OLKARIA(NAIVASHA);;-0.72;36.43;-0.72;36.43;;;OUTCROP;;;SUBAERIAL;VOLCANIC ROCK;BENMOREITE;;DIKE;0;20000;QUATERNARY;;;;;;;MINERAL / COMPONENT (INCL. GROUNDMASS);CLINOPYROXENE;B3;PHENOCRYST;CORE;PRIMARY;;;;;49.01;1.23;;;;1.66;;;;;;;;;;20.11;;;19.81;7.05;0.89;;;0;;;;;;;0.33;;;;;;;;;;;;;;;;;;;;;;;;;;;;;;;;;;;;;;;;;;;;;;;;;;;;;;;;;;;;;;;;;;;;;;;;;;;;;;;;;;;;;;;;;;;;;;;;;;;;;;;;;;;;;;;;;;;;;;;;;;;;;;;;;;;;;;;;;;;;;;;;;;;;;;;;;;;;;;;;;;;;;;;;;;;;;;;;;;;;;;;;;;;;;;;;;;;;;;;;;;;;;;;;;;;;;;;;;;;;;;;;;;;;;;;;;;;;;;21.7;;;34.6;;;;;;;;;;;;43.7;;;;;;;;;;;;;;;
2008;[12263] MACDONALD R.(2008)  [GeoReM [4079] ];samp. BB85.40;;EAST AFRICAN RIFT / KENYA RIFT (EASTERN EAST AFRICAN RIFT) / SOUTHERN KENYA RIFT / GREATER OLKARIA(NAIVASHA);;-0.72;36.43;-0.72;36.43;;;OUTCROP;;;SUBAERIAL;VOLCANIC ROCK;BENMOREITE;;DIKE;0;20000;QUATERNARY;;;;;;;MINERAL / COMPONENT (INCL. GROUNDMASS);CLINOPYROXENE;B2;PHENOCRYST;RIM;PRIMARY;;;;;49.81;1.5;;;;2.84;;;;;;;;;;11.99;;;19.83;12.44;0.41;;;0;;;;;;;0.32;;;;;;;;;;;;;;;;;;;;;;;;;;;;;;;;;;;;;;;;;;;;;;;;;;;;;;;;;;;;;;;;;;;;;;;;;;;;;;;;;;;;;;;;;;;;;;;;;;;;;;;;;;;;;;;;;;;;;;;;;;;;;;;;;;;;;;;;;;;;;;;;;;;;;;;;;;;;;;;;;;;;;;;;;;;;;;;;;;;;;;;;;;;;;;;;;;;;;;;;;;;;;;;;;;;;;;;;;;;;;;;;;;;;;;;;;;;;;;37.2;;;20.1;;;;;;;;;;;;42.7;;;;;;;;;;;;;;;
2008;[12263] MACDONALD R.(2008)  [GeoReM [4079] ];samp. BB85.40;;EAST AFRICAN RIFT / KENYA RIFT (EASTERN EAST AFRICAN RIFT) / SOUTHERN KENYA RIFT / GREATER OLKARIA(NAIVASHA);;-0.72;36.43;-0.72;36.43;;;OUTCROP;;;SUBAERIAL;VOLCANIC ROCK;BENMOREITE;;DIKE;0;20000;QUATERNARY;;;;;;;MINERAL / COMPONENT (INCL. GROUNDMASS);CLINOPYROXENE;B1;PHENOCRYST;RIM;PRIMARY;;;;;49.67;1.49;;;;2.81;;;;;;;;;;12.1;;;19.7;12.4;0.48;;;0.01;;;;;;;0.33;;;;;;;;;;;;;;;;;;;;;;;;;;;;;;;;;;;;;;;;;;;;;;;;;;;;;;;;;;;;;;;;;;;;;;;;;;;;;;;;;;;;;;;;;;;;;;;;;;;;;;;;;;;;;;;;;;;;;;;;;;;;;;;;;;;;;;;;;;;;;;;;;;;;;;;;;;;;;;;;;;;;;;;;;;;;;;;;;;;;;;;;;;;;;;;;;;;;;;;;;;;;;;;;;;;;;;;;;;;;;;;;;;;;;;;;;;;;;;37.2;;;20.3;;;;;;;;;;;;42.5;;;;;;;;;;;;;;;
2008;[12263] MACDONALD R.(2008)  [GeoReM [4079] ];samp. BB85.40;;EAST AFRICAN RIFT / KENYA RIFT (EASTERN EAST AFRICAN RIFT) / SOUTHERN KENYA RIFT / GREATER OLKARIA(NAIVASHA);;-0.72;36.43;-0.72;36.43;;;OUTCROP;;;SUBAERIAL;VOLCANIC ROCK;BENMOREITE;;DIKE;0;20000;QUATERNARY;;;;;;;MINERAL / COMPONENT (INCL. GROUNDMASS);CLINOPYROXENE;C1;PHENOCRYST;CORE;PRIMARY;;;;;51.41;0.99;;;;1.77;;;;;;;;;;12.06;;;17.42;15;0.44;;;0.03;;;;;;;0.25;;;;;;;;;;;;;;;;;;;;;;;;;;;;;;;;;;;;;;;;;;;;;;;;;;;;;;;;;;;;;;;;;;;;;;;;;;;;;;;;;;;;;;;;;;;;;;;;;;;;;;;;;;;;;;;;;;;;;;;;;;;;;;;;;;;;;;;;;;;;;;;;;;;;;;;;;;;;;;;;;;;;;;;;;;;;;;;;;;;;;;;;;;;;;;;;;;;;;;;;;;;;;;;;;;;;;;;;;;;;;;;;;;;;;;;;;;;;;;43.8;;;19.7;;;;;;;;;;;;36.5;;;;;;;;;;;;;;;
2008;[12263] MACDONALD R.(2008)  [GeoReM [4079] ];samp. BB85.40;;EAST AFRICAN RIFT / KENYA RIFT (EASTERN EAST AFRICAN RIFT) / SOUTHERN KENYA RIFT / GREATER OLKARIA(NAIVASHA);;-0.72;36.43;-0.72;36.43;;;OUTCROP;;;SUBAERIAL;VOLCANIC ROCK;BENMOREITE;;DIKE;0;20000;QUATERNARY;;;;;;;MINERAL / COMPONENT (INCL. GROUNDMASS);CLINOPYROXENE;D1;PHENOCRYST;CORE;PRIMARY;;;;;48.49;1.88;;;;4.15;;;;;;;;;;10.56;;;19.1;13.58;0.34;;;0.01;;;;;;;0.39;;;;;;;;;;;;;;;;;;;;;;;;;;;;;;;;;;;;;;;;;;;;;;;;;;;;;;;;;;;;;;;;;;;;;;;;;;;;;;;;;;;;;;;;;;;;;;;;;;;;;;;;;;;;;;;;;;;;;;;;;;;;;;;;;;;;;;;;;;;;;;;;;;;;;;;;;;;;;;;;;;;;;;;;;;;;;;;;;;;;;;;;;;;;;;;;;;;;;;;;;;;;;;;;;;;;;;;;;;;;;;;;;;;;;;;;;;;;;;40.9;;;17.8;;;;;;;;;;;;41.3;;;;;;;;;;;;;;;
2008;[12263] MACDONALD R.(2008)  [GeoReM [4079] ];samp. BB85.40;;EAST AFRICAN RIFT / KENYA RIFT (EASTERN EAST AFRICAN RIFT) / SOUTHERN KENYA RIFT / GREATER OLKARIA(NAIVASHA);;-0.72;36.43;-0.72;36.43;;;OUTCROP;;;SUBAERIAL;VOLCANIC ROCK;BENMOREITE;;DIKE;0;20000;QUATERNARY;;;;;;;MINERAL / COMPONENT (INCL. GROUNDMASS);CLINOPYROXENE;E1;PHENOCRYST;CORE;PRIMARY;;;;;49.81;0.81;;;;1.19;;;;;;;;;;18.53;;;20.43;7.42;0.76;;;0;;;;;;;0.31;;;;;;;;;;;;;;;;;;;;;;;;;;;;;;;;;;;;;;;;;;;;;;;;;;;;;;;;;;;;;;;;;;;;;;;;;;;;;;;;;;;;;;;;;;;;;;;;;;;;;;;;;;;;;;;;;;;;;;;;;;;;;;;;;;;;;;;;;;;;;;;;;;;;;;;;;;;;;;;;;;;;;;;;;;;;;;;;;;;;;;;;;;;;;;;;;;;;;;;;;;;;;;;;;;;;;;;;;;;;;;;;;;;;;;;;;;;;;;22.8;;;32;;;;;;;;;;;;45.2;;;;;;;;;;;;;;;
2008;[12263] MACDONALD R.(2008)  [GeoReM [4079] ];samp. BB85.40;;EAST AFRICAN RIFT / KENYA RIFT (EASTERN EAST AFRICAN RIFT) / SOUTHERN KENYA RIFT / GREATER OLKARIA(NAIVASHA);;-0.72;36.43;-0.72;36.43;;;OUTCROP;;;SUBAERIAL;VOLCANIC ROCK;BENMOREITE;;DIKE;0;20000;QUATERNARY;;;;;;;MINERAL / COMPONENT (INCL. GROUNDMASS);CLINOPYROXENE;F1;PHENOCRYST;CORE;PRIMARY;;;;;49.8;0.91;;;;1.15;;;;;;;;;;19.74;;;20.05;7.6;0.83;;;0;;;;;;;0.29;;;;;;;;;;;;;;;;;;;;;;;;;;;;;;;;;;;;;;;;;;;;;;;;;;;;;;;;;;;;;;;;;;;;;;;;;;;;;;;;;;;;;;;;;;;;;;;;;;;;;;;;;;;;;;;;;;;;;;;;;;;;;;;;;;;;;;;;;;;;;;;;;;;;;;;;;;;;;;;;;;;;;;;;;;;;;;;;;;;;;;;;;;;;;;;;;;;;;;;;;;;;;;;;;;;;;;;;;;;;;;;;;;;;;;;;;;;;;;23;;;33.5;;;;;;;;;;;;43.3;;;;;;;;;;;;;;;
2008;[12263] MACDONALD R.(2008)  [GeoReM [4079] ];samp. SMN166;;EAST AFRICAN RIFT / KENYA RIFT (EASTERN EAST AFRICAN RIFT) / SOUTHERN KENYA RIFT / GREATER OLKARIA(NAIVASHA);;-0.72;36.43;-0.72;36.43;;;OUTCROP;;;SUBAERIAL;VOLCANIC ROCK;BENMOREITE;;LAVA;0;20000;QUATERNARY;;;;;;;MINERAL / COMPONENT (INCL. GROUNDMASS);CLINOPYROXENE;GA;PHENOCRYST;CORE;PRIMARY;;;;;48.68;2.17;;;;4.24;0;;;;;;;;;12.53;;;19.51;12.6;0.34;;;0;;;;;;;0.36;;;;;;;;;;;;;;;;;;;;;;;;;;;;;;;;;;;;;;;;;;;;;;;;;;;;;;;;;;;;;;;;;;;;;;;;;;;;;;;;;;;;;;;;;;;;;;;;;;;;;;;;;;;;;;;;;;;;;;;;;;;;;;;;;;;;;;;;;;;;;;;;;;;;;;;;;;;;;;;;;;;;;;;;;;;;;;;;;;;;;;;;;;;;;;;;;;;;;;;;;;;;;;;;;;;;;;;;;;;;;;;;;;;;;;;;;;;;;;37.4;;;20.9;;;;;;;;;;;;41.7;;;;;;;;;;;;;;;
2008;[12263] MACDONALD R.(2008)  [GeoReM [4079] ];samp. SMN166;;EAST AFRICAN RIFT / KENYA RIFT (EASTERN EAST AFRICAN RIFT) / SOUTHERN KENYA RIFT / GREATER OLKARIA(NAIVASHA);;-0.72;36.43;-0.72;36.43;;;OUTCROP;;;SUBAERIAL;VOLCANIC ROCK;BENMOREITE;;LAVA;0;20000;QUATERNARY;;;;;;;MINERAL / COMPONENT (INCL. GROUNDMASS);CLINOPYROXENE;GA;PHENOCRYST;RIM;PRIMARY;;;;;47.39;2.53;;;;4.69;0.01;;;;;;;;;12.31;;;20.05;12.13;0.33;;;0;;;;;;;0.43;;;;;;;;;;;;;;;;;;;;;;;;;;;;;;;;;;;;;;;;;;;;;;;;;;;;;;;;;;;;;;;;;;;;;;;;;;;;;;;;;;;;;;;;;;;;;;;;;;;;;;;;;;;;;;;;;;;;;;;;;;;;;;;;;;;;;;;;;;;;;;;;;;;;;;;;;;;;;;;;;;;;;;;;;;;;;;;;;;;;;;;;;;;;;;;;;;;;;;;;;;;;;;;;;;;;;;;;;;;;;;;;;;;;;;;;;;;;;;36.3;;;20.7;;;;;;;;;;;;43.1;;;;;;;;;;;;;;;
2008;[12263] MACDONALD R.(2008)  [GeoReM [4079] ];samp. SMN166;;EAST AFRICAN RIFT / KENYA RIFT (EASTERN EAST AFRICAN RIFT) / SOUTHERN KENYA RIFT / GREATER OLKARIA(NAIVASHA);;-0.72;36.43;-0.72;36.43;;;OUTCROP;;;SUBAERIAL;VOLCANIC ROCK;BENMOREITE;;LAVA;0;20000;QUATERNARY;;;;;;;MINERAL / COMPONENT (INCL. GROUNDMASS);CLINOPYROXENE;GJ;PHENOCRYST;CORE;PRIMARY;;;;;48.6;1.9;;;;3.56;0;;;;;;;;;11.46;;;19.74;13.09;0.35;;;0;;;;;;;0.34;;;;;;;;;;;;;;;;;;;;;;;;;;;;;;;;;;;;;;;;;;;;;;;;;;;;;;;;;;;;;;;;;;;;;;;;;;;;;;;;;;;;;;;;;;;;;;;;;;;;;;;;;;;;;;;;;;;;;;;;;;;;;;;;;;;;;;;;;;;;;;;;;;;;;;;;;;;;;;;;;;;;;;;;;;;;;;;;;;;;;;;;;;;;;;;;;;;;;;;;;;;;;;;;;;;;;;;;;;;;;;;;;;;;;;;;;;;;;;38.8;;;19.1;;;;;;;;;;;;42.1;;;;;;;;;;;;;;;
2008;[12263] MACDONALD R.(2008)  [GeoReM [4079] ];samp. SMN165B;;EAST AFRICAN RIFT / KENYA RIFT (EASTERN EAST AFRICAN RIFT) / SOUTHERN KENYA RIFT / GREATER OLKARIA(NAIVASHA);;-0.72;36.43;-0.72;36.43;;;OUTCROP;;;SUBAERIAL;VOLCANIC ROCK;BENMOREITE;;LAVA;0;20000;QUATERNARY;;;;;;;MINERAL / COMPONENT (INCL. GROUNDMASS);CLINOPYROXENE;KE;PHENOCRYST;CORE;PRIMARY;;;;;51.79;0.99;;;;1.54;0.03;;;;;;;;;13.54;;;17.58;14.47;0.46;;;0;;;;;;;0.24;;;;;;;;;;;;;;;;;;;;;;;;;;;;;;;;;;;;;;;;;;;;;;;;;;;;;;;;;;;;;;;;;;;;;;;;;;;;;;;;;;;;;;;;;;;;;;;;;;;;;;;;;;;;;;;;;;;;;;;;;;;;;;;;;;;;;;;;;;;;;;;;;;;;;;;;;;;;;;;;;;;;;;;;;;;;;;;;;;;;;;;;;;;;;;;;;;;;;;;;;;;;;;;;;;;;;;;;;;;;;;;;;;;;;;;;;;;;;;41.7;;;21.9;;;;;;;;;;;;36.4;;;;;;;;;;;;;;;
2008;[12263] MACDONALD R.(2008)  [GeoReM [4079] ];samp. SMN165B;;EAST AFRICAN RIFT / KENYA RIFT (EASTERN EAST AFRICAN RIFT) / SOUTHERN KENYA RIFT / GREATER OLKARIA(NAIVASHA);;-0.72;36.43;-0.72;36.43;;;OUTCROP;;;SUBAERIAL;VOLCANIC ROCK;BENMOREITE;;LAVA;0;20000;QUATERNARY;;;;;;;MINERAL / COMPONENT (INCL. GROUNDMASS);CLINOPYROXENE;KJ;PHENOCRYST;CORE;PRIMARY;;;;;48.77;2.11;;;;4.44;0;;;;;;;;;12.93;;;18.32;13.18;0.35;;;0;;;;;;;0.34;;;;;;;;;;;;;;;;;;;;;;;;;;;;;;;;;;;;;;;;;;;;;;;;;;;;;;;;;;;;;;;;;;;;;;;;;;;;;;;;;;;;;;;;;;;;;;;;;;;;;;;;;;;;;;;;;;;;;;;;;;;;;;;;;;;;;;;;;;;;;;;;;;;;;;;;;;;;;;;;;;;;;;;;;;;;;;;;;;;;;;;;;;;;;;;;;;;;;;;;;;;;;;;;;;;;;;;;;;;;;;;;;;;;;;;;;;;;;;39.2;;;21.6;;;;;;;;;;;;39.2;;;;;;;;;;;;;;;
2008;[12263] MACDONALD R.(2008)  [GeoReM [4079] ];samp. SMN165B;;EAST AFRICAN RIFT / KENYA RIFT (EASTERN EAST AFRICAN RIFT) / SOUTHERN KENYA RIFT / GREATER OLKARIA(NAIVASHA);;-0.72;36.43;-0.72;36.43;;;OUTCROP;;;SUBAERIAL;VOLCANIC ROCK;BENMOREITE;;LAVA;0;20000;QUATERNARY;;;;;;;MINERAL / COMPONENT (INCL. GROUNDMASS);CLINOPYROXENE;KJ;PHENOCRYST;RIM;PRIMARY;;;;;49.75;1.7;;;;3.68;0;;;;;;;;;11.51;;;20.28;13.14;0.31;;;0;;;;;;;0.37;;;;;;;;;;;;;;;;;;;;;;;;;;;;;;;;;;;;;;;;;;;;;;;;;;;;;;;;;;;;;;;;;;;;;;;;;;;;;;;;;;;;;;;;;;;;;;;;;;;;;;;;;;;;;;;;;;;;;;;;;;;;;;;;;;;;;;;;;;;;;;;;;;;;;;;;;;;;;;;;;;;;;;;;;;;;;;;;;;;;;;;;;;;;;;;;;;;;;;;;;;;;;;;;;;;;;;;;;;;;;;;;;;;;;;;;;;;;;;38.4;;;18.9;;;;;;;;;;;;42.7;;;;;;;;;;;;;;;
2008;[12263] MACDONALD R.(2008)  [GeoReM [4079] ];samp. BB85.268;;EAST AFRICAN RIFT / KENYA RIFT (EASTERN EAST AFRICAN RIFT) / SOUTHERN KENYA RIFT / GREATER OLKARIA(NAIVASHA) / OLKARIA COMENDITE FORMATION;;-0.72;36.43;-0.72;36.43;;;OUTCROP;;;SUBAERIAL;VOLCANIC ROCK;BENMOREITE;;DIKE;0;20000;QUATERNARY;;;;;;;MINERAL / COMPONENT (INCL. GROUNDMASS);TITANO-MAGNETITE;DENDRITE;PHENOCRYST;;PRIMARY;;;;;0.04;23.12;0.02;;;2.21;;;;;;;0;;;69.57;;;;1.75;0.73;;;0.04;;;;;;;;;;;;;;;;;;;;;;;;;;;;;;;;;;;;;;;;;;;;;;;;;;;;;;;;;;;;;;;;;;;;;;;;;;;;;;;;;;;;;;;;;;;;;;;;;;;;;;;;;;;;;;;;;;;;;;;;;;;;;;;;;;;;;;;;;;;;;;;;;;;;;;;;;;;;;;;;;;;;;;;;;;;;;;;;;;;;;;;;;;;;;;;;;;;;;;;;;;;;;;;;;;;;;;;;;;;;;;;;;;;;;;;;;;;;;;;;;;;;;;;;;;;;;;;;;;;66.8;;;;;;;;;;;;;;;;