Year;CITATION;SAMPLE NAME;UNIQUE_ID;LOCATION;LOCATION COMMENT;LATITUDE (MIN.);LONGITUDE (MIN.);LATITUDE (MAX.);LONGITUDE (MAX.);ELEVATION (MIN.);ELEVATION (MAX.);SAMPLING TECHNIQUE;DRILLING DEPTH (MIN.);DRILLING DEPTH (MAX.);LAND/SEA (SAMPLING);ROCK TYPE;ROCK NAME;ROCK TEXTURE;SAMPLE COMMENT;AGE (MIN.);AGE (MAX.);GEOLOGICAL AGE;GEOLOGICAL AGE PREFIX;ERUPTION DAY;ERUPTION MONTH;ERUPTION YEAR;ALTERATION;ALTERATION TYPE;TYPE OF MATERIAL;MINERAL / COMPONENT;SPOT (MINERAL);CRYSTAL;RIM / CORE (MINERAL GRAINS);PRIMARY/SECONDARY;INCLUSION TYPE;MINERAL (INCLUSION);HOSTMINERAL (INCLUSION);HEATING;SIO2(WT%);TIO2(WT%);ZRO2(WT%);HFO2(WT%);THO2(WT%);AL2O3(WT%);CR2O3(WT%);LA2O3(WT%);CE2O3(WT%);ND2O3(WT%);SM2O3(WT%);V2O3(WT%);NB2O5(WT%);FE2O3T(WT%);FE2O3(WT%);FEOT(WT%);FEO(WT%);FET(WT%);CAO(WT%);MGO(WT%);MNO(WT%);BAO(WT%);SRO(WT%);NIO(WT%);ZNO(WT%);RB2O(WT%);K2O(WT%);;;;NA2O(WT%);P2O5(WT%);AS2O5(WT%);H2O(WT%);H2OP(WT%);H2OM(WT%);CO2(WT%);C(WT%);F(WT%);CL(WT%);OH(WT%);SO3(WT%);S(WT%);LOI(WT%);TI(WT%);CA(WT%);K(WT%);LI(PPM);BE(PPM);B(PPM);F(PPM);P(PPM);S(PPM);CL(PPM);AR40(AT/G);;;;AR40(CCMSTP/G);;;;AR40(MOL/G);;;;AR40(PPB);K(PPM);SC(PPM);;;;TI(PPM);V(PPM);;;;CR(PPM);;;;CO(PPM);;;;NI(PPM);;;;CU(PPM);;;;ZN(PPM);;;;GA(PPM);;;;GE(PPM);AS(PPM);AS(PPB);SE(PPM);RB(PPM);;;;;;SR(PPM);;;;;;Y(PPM);;;;ZR(PPM);;;;NB(PPM);;;;MO(PPM);AG(PPM);CD(PPM);IN(PPM);SN(PPM);SB(PPM): altern. values or methods;;;;TE(PPM);CS(PPM): altern. values or methods;;;;BA(PPM): altern. values or methods;;;;LA(PPM): altern. values or methods;;;;CE(PPM): altern. values or methods;;;;PR(PPM);ND(PPM): altern. values or methods;;;;;;SM(PPM): altern. values or methods;;;;EU(PPM): altern. values or methods;;;;GD(PPM): altern. values or methods;;;;TB(PPM): altern. values or methods;;;;DY(PPM): altern. values or methods;;;;HO(PPM);ER(PPM): altern. values or methods;;;;TM(PPM);YB(PPM): altern. values or methods;;;;LU(PPM);HF(PPM);TA(PPM);W(PPM);RE(PPM);AU(PPM);HG(PPM);HG(PPB);TL(PPM);PB(PPM): altern. values or methods;;;;BI(PPM);PO210_ACT(DPM/G);RA226_ACT(DPM/G);TH(PPM): altern. values or methods;;;;U(PPM): altern. values or methods;;;;ND143_ND144;ND143_ND144_INI;EPSILON_ND;EPSILON_ND_INI;SM147_ND144;SR87_SR86;SR87_SR86_INI;EPSILON_SR_INI;RB87_SR86;PB206_PB204: altern. values or methods;;;;PB206_PB204_INI;PB207_PB204: altern. values or methods;;;;PB207_PB204_INI;PB207_PB206;PB208_PB204: altern. values or methods;;;;PB208_PB204_INI;PB208_PB206;HF176_HF177;LU176_HF177;AR38_AR36;AR40_AR36;AR40_AR36_INI;PB206_U238;PB207_U235;RA226_TH230_ACT;PA231_U235_ACT;TH230_TH232_ACT;TH230_U238_ACT;TH232_PB204;U234_U238_ACT;U235_PB204;U238_PB204;U238_TH232_ACT;D7LI(VS LSVEC);D13C(VS PDB);D18O(PER MIL);D18O(VS SMOW);D18O(VS VSMOW);D34S(VS VCDT);ALBITE(MOL%);ANORTHITE(MOL%);CA OLIVINE(MOL%);CHROMITE(MOL%);ENSTATITE(MOL%);FAYALITE(MOL%);FORSTERITE(MOL%);FERROSILITE(MOL%);HEMATITE(MOL%);HERCYNITE(MOL%);ILMENITE(MOL%);MAGNESIOFERRITE(MOL%);MONTICELLITE(MOL%);MAGNETITE(MOL%);ORTHOCLASE(MOL%);PICROCHROMITE(MOL%);SPINEL(MOL%);TEPHROITE(MOL%);ULVOSPINEL(MOL%);WOLLASTONITE(MOL%);AGE(KA): altern. values or methods;;;;;;AGE(MA): altern. values or methods;;;;;;AGE_PB207_U235(MA);AGE_PB206_U238(MA);
1990;[10315] LE MASURIER W. E. (1990);samp. 75;;ANTARCTICA / WEST ANTARCTIC RIFT SYSTEM / MARIE BYRD LAND / TONEY MOUNTAIN;;-75.7997;-115.7998;-75.7997;-115.7998;;;OUTCROP;;;SUBAERIAL;VOLCANIC ROCK;BENMOREITE;;;;;PLEISTOCENE;;;;;;;MINERAL / COMPONENT (INCL. GROUNDMASS);HORNBLENDE;;GROUNDMASS;;PRIMARY;;;;;48.38;1.11;;;;4.5;;;;;;;;;;18.62;;;9.63;12.16;0.64;;;;;;1.05;EMP (EPMA);;;2.68;;;;;;;;;;;;;;;;;;;;;;;;;;;;;;;;;;;;;;;;;;;;;;;;;;;;;;;;;;;;;;;;;;;;;;;;;;;;;;;;;;;;;;;;;;;;;;;;;;;;;;;;;;;;;;;;;;;;;;;;;;;;;;;;;;;;;;;;;;;;;;;;;;;;;;;;;;;;;;;;;;;;;;;;;;;;;;;;;;;;;;;;;;;;;;;;;;;;;;;;;;;;;;;;;;;;;;;;;;;;;;;;;;;;;;;;;;;;;;;;;;;;;;;;;;;;;;;;;;;;;;;;;;;;
1990;[10315] LE MASURIER W. E. (1990);samp. 75;;ANTARCTICA / WEST ANTARCTIC RIFT SYSTEM / MARIE BYRD LAND / TONEY MOUNTAIN;;-75.7997;-115.7998;-75.7997;-115.7998;;;OUTCROP;;;SUBAERIAL;VOLCANIC ROCK;BENMOREITE;;;;;PLEISTOCENE;;;;;;;MINERAL / COMPONENT (INCL. GROUNDMASS);OXIDES/OPAQUES;;GROUNDMASS;;PRIMARY;;;;;;23.29;;;;1.32;;;;;;;;;;72.77;;;;0.22;0.96;;;;;;;;;;;;;;;;;;;;;;;;;;;;;;;;;;;;;;;;;;;;;;;;;;;;;;;;;;;;;;;;;;;;;;;;;;;;;;;;;;;;;;;;;;;;;;;;;;;;;;;;;;;;;;;;;;;;;;;;;;;;;;;;;;;;;;;;;;;;;;;;;;;;;;;;;;;;;;;;;;;;;;;;;;;;;;;;;;;;;;;;;;;;;;;;;;;;;;;;;;;;;;;;;;;;;;;;;;;;;;;;;;;;;;;;;;;;;;;;;;;;;;;;;;;;;;;;;;;;;;;;;;;;;;;;;;;;;;
1990;[10315] LE MASURIER W. E. (1990);samp. 23A;;ANTARCTICA / WEST ANTARCTIC RIFT SYSTEM / MARIE BYRD LAND / MOUNT HAMPTON;WHITNEY PEAK CALDERA;-76.42;-126;-76.42;-126;;;OUTCROP;;;SUBAERIAL;VOLCANIC ROCK;BENMOREITE;;;;;MIOCENE;;;;;;;WHOLE ROCK;;;;;;;;;;55.41;1.2;;;;15.04;;;;;;;;;4.39;;6.72;;4.45;0.79;0.33;;;;;;3.31;WET;;;5.83;0.4;;;;0.36;;;0.05;;;;;;;;;;;;;;;;;;;;;;;;;;;;;;;;;;;20;XRF;;;0;XRF;;;;;;;8;XRF;;;;;;;;;;;;;;;;;;;46;XRF;;;;;385;XRF;;;;;55;XRF;;;422;XRF;;;76;XRF;;;;;;;;;;;;;;;;;1885;XRF;;;62;XRF;;;186;XRF;;;;;;;;;;;;;;;;;;;;;;;;;;;;;;;;;;;;;;;;;;;;;;;;;;;;;;;;0;XRF;;;2;XRF;;;;;;;;;;;;;;;;;;;;;;;;;;;;;;;;;;;;;;;;;;;;;;;;;;;;;;;;;;;;;;;;;;;;;;;;;;;;;;;;;;;;;
1990;[10315] LE MASURIER W. E. (1990);samp. 50A;;ANTARCTICA / WEST ANTARCTIC RIFT SYSTEM / MARIE BYRD LAND / MOUNT SIDLEY;;-77.1;-126.1;-77.1;-126.1;;;OUTCROP;;;SUBAERIAL;VOLCANIC ROCK;BENMOREITE;;;;;PLIOCENE;;;;;;;WHOLE ROCK;;;;;;;;;;55.34;0.9;;;;16.79;;;;;;;;;1.5;;8.59;;4.02;1.15;0.25;;;;;;3.01;WET;;;6.39;0.59;;;0;0.32;0;;0.06;;;;;;;;;;;;;;;;;;;;;;;;;;;;;;;;;;;14;XRF;;;27;XRF;;;;;;;8;XRF;;;;;;;;;;;;;;;;;;;81;XRF;;;;;544;XRF;;;;;38;XRF;;;587;XRF;;;119;XRF;;;;;;;;;;;;;;;;;1011;XRF;;;99;XRF;;;237;XRF;;;;;;;;;;;;;;;;;;;;;;;;;;;;;;;;;;;;;;;;;;;;;;;;;;;;;;;;10;XRF;;;3;XRF;;;;;;;;;;;;;;;;;;;;;;;;;;;;;;;;;;;;;;;;;;;;;;;;;;;;;;;;;;;;;;;;;;;;;;;;;;;;;;;;;;;;;
1990;[10315] LE MASURIER W. E. (1990);samp. 35A;;ANTARCTICA / WEST ANTARCTIC RIFT SYSTEM / MARIE BYRD LAND / MOUNT WAESCHE;PARASITE CONE;-77.17;-126.9;-77.17;-126.9;;;OUTCROP;;;SUBAERIAL;VOLCANIC ROCK;BENMOREITE;;LAVA;;;NEOGENE;;;;;;;WHOLE ROCK;;;;;;;;;;54;1.75;;;;16.4;;;;;;;;;3.1;;7;;5.5;2.2;0.13;;;;;;2.4;WET;;;7;0.5;;;0;0;0;;0.18;;;;;;;;;;;;;;;;;;;;;;;;;;;;;;;;;;;74;XRF;;;0;XRF;;;11;XRF;;;3;XRF;;;24;XRF;;;105;XRF;;;25;XRF;;;;;;;47;XRF;;;;;405;XRF;;;;;51;XRF;;;434;XRF;;;106;XRF;;;;;;;;;;;;;;;;;616;XRF;;;71;XRF;;;148;XRF;;;;;;;;;;;;;;;;;;;;;;;;;;;;;;;;;;;;;;;;;;;;;;;;;5;XRF;;;;;;8;XRF;;;3;XRF;;;;;;;;;;;;;;;;;;;;;;;;;;;;;;;;;;;;;;;;;;;;;;;;;;;;;;;;;;;;;;;;;;;;;;;;;;;;;;;;;;;;;
1990;[10315] LE MASURIER W. E. (1990);samp. 67A35;250599;ANTARCTICA / WEST ANTARCTIC RIFT SYSTEM / MARIE BYRD LAND / MOUNT BERLIN;WEDEMEYER ROCKS;-76;-135.8;-76;-135.8;;;OUTCROP;;;SUBAERIAL;VOLCANIC ROCK;BENMOREITE;PORPHYRITIC;;;;NEOGENE;;;;;;;WHOLE ROCK;;;;;;;;;;54.55;1.78;;;;18.59;;;;;;;;;0.45;;7.96;;4.72;2.01;0.21;;;;;;3.13;XRF;;;5.92;0.86;;;0.1;0.03;;;0.13;;;;;;;;;;;;;;;;;;;;;;;;;;;;;;;;;;;73;XRF;;;0;XRF;;;25;XRF;;;0;XRF;;;12;XRF;;;164;XRF;;;30;XRF;;;;;;;63;XRF;;;;;562;XRF;;;;;58;XRF;;;541;XRF;;;105;XRF;;;;;;;;;;;;;;;;;693;XRF;;;73;XRF;;;175;XRF;;;;;;;;;;;;;;;;;;;;;;;;;;;;;;;;;;;;;;;;;;;;;;;;;9;XRF;;;;;;11;XRF;;;1;XRF;;;;;;;;;;;;;;;;;;;;;;;;;;;;;;;;;;;;;;;;;;;;;;;;;;;;;;;;;;;;;;;;;;;;;;;;;;;;;;;;;;;;;
1990;[10315] LE MASURIER W. E. (1990);samp. BN31D;;ANTARCTICA / WEST ANTARCTIC RIFT SYSTEM / MARIE BYRD LAND / MOUNT BERLIN;MERREM PEAK;-76;-135.8;-76;-135.8;;;OUTCROP;;;SUBAERIAL;VOLCANIC ROCK;BENMOREITE;PORPHYRITIC;;;;NEOGENE;;;;;;;WHOLE ROCK;;;;;;;;;;57.23;1.33;;;;17.94;;;;;;;;;4.26;;3.89;;3.78;0.82;0.26;;;;;;3.06;XRF;;;5.6;0.52;;;0.48;0;;;0;;;;;;;;;;;;;;;;;;;;;;;;;;;;;;;;;;;55;XRF;;;4;XRF;;;10;XRF;;;0;XRF;;;8;XRF;;;138;XRF;;;29;XRF;;;;;;;13;XRF;;;;;535;XRF;;;;;58;XRF;;;630;XRF;;;116;XRF;;;;;;;;;;;;;;;;;731;XRF;;;82;XRF;;;172;XRF;;;;;;;;;;;;;;;;;;;;;;;;;;;;;;;;;;;;;;;;;;;;;;;;;13;XRF;;;;;;10;XRF;;;10;XRF;;;;;;;;;;;;;;;;;;;;;;;;;;;;;;;;;;;;;;;;;;;;;;;;;;;;;;;;;;;;;;;;;;;;;;;;;;;;;;;;;;;;;
1990;[10315] LE MASURIER W. E. (1990);samp. GI11C;250631;ANTARCTICA / WEST ANTARCTIC RIFT SYSTEM / MARIE BYRD LAND / MOUNT OBIGLIO;GRANT ISLAND;-74.42;-131.83;-74.42;-131.83;;;OUTCROP;;;SUBAERIAL;VOLCANIC ROCK;BENMOREITE;;;;;NEOGENE;;;;;;;WHOLE ROCK;;;;;;;;;;55.11;0.72;;;;15.04;;;;;;;;;5;;7.19;;4.09;0.69;0.4;;;;;;3.45;WET;;;4.92;0.25;;;0;1.99;0;;0;;;;;;;;;;;;;;;;;;;;;;;;;;;;;;;;;;;;;;;;;;;;;;;;;;;;;;;;;;;;;;;;;;;;;;;;;;;;;;;;;;;;;;;;;;;;;;;;;;;;;;;;;;;;;;;;;;;;;;;;;;;;;;;;;;;;;;;;;;;;;;;;;;;;;;;;;;;;;;;;;;;;;;;;;;;;;;;;;;;;;;;;;;;;;;;;;;;;;;;;;;;;;;;;;;;;;;;;;;;;;;;;;;;;;;;;;;;;;;;;;;;;;;;;;;;;;;;;;;;;
1990;[10315] LE MASURIER W. E. (1990);samp. 19891;;NEW ZEALAND / SOUTH ISLAND / CAMPBELL ISLAND;LION ROCK;-52.5;169.17;-52.5;169.17;;;OUTCROP;;;SUBAERIAL;VOLCANIC ROCK;BENMOREITE;;;6500000;8000000;MIOCENE;;;;;;;WHOLE ROCK;;;;;;;;;;55.1;1.68;;;;16.61;;;;;;;;;1.7;;8.51;;5.3;1.87;0.22;;;;;;2.43;XRF;;;5.87;0.71;;;;;;;;;;;;;;;;;;;;;;;;;;;;;;;;;;;;;;;;;;58;XRF;;;;;;;;;;;4;XRF;;;;;;;;;;;;;;;;;;;66;XRF;;;;;488;XRF;;;;;55;XRF;;;545;XRF;;;105;XRF;;;;;;;;;;;;;;;;;611;XRF;;;70;XRF;;;150;XRF;;;;;;;;;;;;;;;;;;;;;;;;;;;;;;;;;;;;;;;;;;;;;;;;;;;;;;;;12;XRF;;;;;;;;;;;;;;;;;;;;;;;;;;;;;;;;;;;;;;;;;;;;;;;;;;;;;;;;;;;;;;;;;;;;;;;;;;;;;;;;;;;;;;;;;
2004;[10318] ARMIENTI P. (2004);samp. VBE 034;194765;ETNA/SICILY / VALLE DEL BOVE VOLCANIC SUCCESSION;ELLITICO VOLCANO;37.73;15;37.73;15;;;OUTCROP;;;SUBAERIAL;VOLCANIC ROCK;BENMOREITE;;;;;;;;;;;;WHOLE ROCK;;;;;;;;;;59.35;1.47;;;;16.93;;;;;;;;;2.58;;3.72;;3.64;1.79;0.19;;;;;;2.85;NOT;;;5.31;0.44;;;;;;;;;;;;1.72;;;;;;;;;;;;;;;;;;;;;;;;;12;NOT;;;;83;NOT;;;1;NOT;;;7;NOT;;;4;NOT;;;;;;;;;;;;;;;;;;;63;NOT;;;;;835;NOT;;;;;41;NOT;;;416;NOT;;;101;NOT;;;;;;;;;;;;;2.18;NOT;;;1339;NOT;;;118;NOT;;;240;NOT;;;24.3;84;NOT;;;;;14.1;NOT;;;3.4;NOT;;;9.3;NOT;;;1.43;NOT;;;7.8;NOT;;;1.46;3.7;NOT;;;0.49;3.23;NOT;;;0.45;9.1;5.4;;;;;;;21.3;NOT;;;;;;20.8;NOT;;;5.6;NOT;;;0.512854;;;;;0.703471;;;;;;;;;;;;;;;;;;;;;;;;;;;;;;;;;;;;;;;;;;;;;;;;;;;;;;;;;;;;;;;;;;;;;;;;;;;;;
1995;[10512] MACDONALD R. (1995);samp. KB116;;EAST AFRICAN RIFT / KENYA RIFT (EASTERN EAST AFRICAN RIFT) / NORTHERN KENYA RIFT / SILALI / BLACK HILLS TRACHYTE;POST-CALDERA GROUP;1.15;36.23;1.15;36.23;;;OUTCROP;;;SUBAERIAL;VOLCANIC ROCK;BENMOREITE;;;7000;9000;QUATERNARY;;;;;;;WHOLE ROCK;;;;;;;;;;57.26;1.32;;;;15.92;;;;;;;;;;7.69;;;3.41;1.83;0.25;;;;;;4.54;XRF;;;6.26;0.3;;;;;;;;;;;;0.15;;;;;;;;;;;;;;;;;;;;;;;;;;;;;;;;;;30;XRF;;;;;;;;;;;;;;;157;XRF;;;;;;;;;;;122;XRF;;;;;128;XRF;;;;;67;XRF;;;693;XRF;;;186;XRF;;;;;;;;;;;;;;;;;384;XRF;;;;;;;;;;;;;;;;;;;;;;;;;;;;;;;;;;;;;;;;;;;;;;;;;;;;;;;;;;;;;;;;14;XRF;;;;;;;;;;;;;;;;;;;;;;;;;;;;;;;;;;;;;;;;;;;;;;;;;;;;;;;;;;;;;;;;;;;;;;;;;;;;;;;;;;;;;;;;;
1984;[10651] GOURGAUD A. (1984);samp. 20;;EUROPEAN OROGENIC BELT - CENOZOIC/QUATERNARY / FRANCE / FRENCH MASSIF CENTRAL / MONTS DORE / GRANDE CASCADE SEQUENCE;SANCY STRATOVOLCANO, SOUTHERN MONTS DORE;45.35;2.49;45.35;2.49;;;OUTCROP;;;SUBAERIAL;VOLCANIC ROCK;BENMOREITE;PORPHYRITIC;HOST LAVA FLOW;;;QUATERNARY;;;;;;;WHOLE ROCK;;;;;;;;;;62.5;1.3;;;;15.5;;;;;;;;4.8;;;;;3.5;2.4;0.1;;;;;;5.55;AAS;;;4.7;;;;0.27;0;;;;;;;;;;;;;;;;;;;;;;;;;;;;;;;;;;;;;;;;;;55;AAS;;;;;;;35;AAS;;;;;;;;;;;;;;;;;;;175;AAS;;;;;370;AAS;;;;;;;;;;;;;;;;;;;;;;;;;;;;;;;;;;;;;;;;;;;;;;;;;;;;;;;;;;;;;;;;;;;;;;;;;;;;;;;;;;;;;;;;;;;;;;;;;;;;;;;;;;;;;;;;;;;;;;;;;;;;;;;;;;;;;;;;;;;;;;;;;;;;;;;;;;;;;;;;;;;;;;;;;;;;;;;;;;;;;;;;;;
1984;[10651] GOURGAUD A. (1984);samp. 21;;EUROPEAN OROGENIC BELT - CENOZOIC/QUATERNARY / FRANCE / FRENCH MASSIF CENTRAL / MONTS DORE / GRANDE CASCADE SEQUENCE;SANCY STRATOVOLCANO, SOUTHERN MONTS DORE;45.35;2.49;45.35;2.49;;;OUTCROP;;;SUBAERIAL;VOLCANIC ROCK;BENMOREITE;PORPHYRITIC;HOST LAVA FLOW;;;QUATERNARY;;;;;;;WHOLE ROCK;;;;;;;;;;60.7;1.5;;;;15.8;;;;;;;;5.4;;;;;4;2.9;0.11;;;;;;4.85;AAS;;;4.8;;;;0.31;0.06;;;;;;;;;;;;;;;;;;;;;;;;;;;;;;;;;;;;;;;;;;75;AAS;;;;;;;40;AAS;;;;;;;;;;;;;;;;;;;140;AAS;;;;;420;AAS;;;;;;;;;;;;;;;;;;;;;;;;;;;;;;;;;;;;;;;;;;;;;;;;;;;;;;;;;;;;;;;;;;;;;;;;;;;;;;;;;;;;;;;;;;;;;;;;;;;;;;;;;;;;;;;;;;;;;;;;;;;;;;;;;;;;;;;;;;;;;;;;;;;;;;;;;;;;;;;;;;;;;;;;;;;;;;;;;;;;;;;;;;
1984;[10651] GOURGAUD A. (1984);samp. 22;;EUROPEAN OROGENIC BELT - CENOZOIC/QUATERNARY / FRANCE / FRENCH MASSIF CENTRAL / MONTS DORE / GRANDE CASCADE SEQUENCE;SANCY STRATOVOLCANO, SOUTHERN MONTS DORE;45.35;2.49;45.35;2.49;;;OUTCROP;;;SUBAERIAL;VOLCANIC ROCK;BENMOREITE;PORPHYRITIC;HOST LAVA FLOW;;;QUATERNARY;;;;;;;WHOLE ROCK;;;;;;;;;;59.7;1.8;;;;16;;;;;;;;5.75;;;;;4.5;3.45;0.12;;;;;;4.7;AAS;;;4.65;;;;0.1;0.06;;;;;;;;;;;;;;;;;;;;;;;;;;;;;;;;;;;;;;;;;;85;AAS;;;;;;;50;AAS;;;;;;;;;;;;;;;;;;;140;AAS;;;;;430;AAS;;;;;;;;;;;;;;;;;;;;;;;;;;;;;;;;;;;;;;;;;;;;;;;;;;;;;;;;;;;;;;;;;;;;;;;;;;;;;;;;;;;;;;;;;;;;;;;;;;;;;;;;;;;;;;;;;;;;;;;;;;;;;;;;;;;;;;;;;;;;;;;;;;;;;;;;;;;;;;;;;;;;;;;;;;;;;;;;;;;;;;;;;;
1984;[10651] GOURGAUD A. (1984);samp. 23;;EUROPEAN OROGENIC BELT - CENOZOIC/QUATERNARY / FRANCE / FRENCH MASSIF CENTRAL / MONTS DORE / GRANDE CASCADE SEQUENCE;SANCY STRATOVOLCANO, SOUTHERN MONTS DORE;45.35;2.49;45.35;2.49;;;OUTCROP;;;SUBAERIAL;VOLCANIC ROCK;BENMOREITE;PORPHYRITIC;HOST LAVA FLOW;;;QUATERNARY;;;;;;;WHOLE ROCK;;;;;;;;;;59;1.65;;;;16;;;;;;;;5.2;;;;;4.3;3.5;0.13;;;;;;4.5;AAS;;;5.3;;;;0.04;0.21;;;;;;;;;;;;;;;;;;;;;;;;;;;;;;;;;;;;;;;;;;90;AAS;;;;;;;45;AAS;;;;;;;;;;;;;;;;;;;150;AAS;;;;;425;AAS;;;;;;;;;;;;;;;;;;;;;;;;;;;;;;;;;;;;;;;;;;;;;;;;;;;;;;;;;;;;;;;;;;;;;;;;;;;;;;;;;;;;;;;;;;;;;;;;;;;;;;;;;;;;;;;;;;;;;;;;;;;;;;;;;;;;;;;;;;;;;;;;;;;;;;;;;;;;;;;;;;;;;;;;;;;;;;;;;;;;;;;;;;
1984;[10651] GOURGAUD A. (1984);samp. 24;;EUROPEAN OROGENIC BELT - CENOZOIC/QUATERNARY / FRANCE / FRENCH MASSIF CENTRAL / MONTS DORE / GRANDE CASCADE SEQUENCE;SANCY STRATOVOLCANO, SOUTHERN MONTS DORE;45.35;2.49;45.35;2.49;;;OUTCROP;;;SUBAERIAL;VOLCANIC ROCK;BENMOREITE;PORPHYRITIC;HOST LAVA FLOW;;;QUATERNARY;;;;;;;WHOLE ROCK;;;;;;;;;;56.6;1.85;;;;15.9;;;;;;;;7;;;;;5.2;4.1;0.14;;;;;;4.2;AAS;;;5;;;;0;0.17;;;;;;;;;;;;;;;;;;;;;;;;;;;;;;;;;;;;;;;;;;120;AAS;;;;;;;65;AAS;;;;;;;;;;;;;;;;;;;130;AAS;;;;;420;AAS;;;;;;;;;;;;;;;;;;;;;;;;;;;;;;;;;;;;;;;;;;;;;;;;;;;;;;;;;;;;;;;;;;;;;;;;;;;;;;;;;;;;;;;;;;;;;;;;;;;;;;;;;;;;;;;;;;;;;;;;;;;;;;;;;;;;;;;;;;;;;;;;;;;;;;;;;;;;;;;;;;;;;;;;;;;;;;;;;;;;;;;;;;
1969;[10662] COOMBS D. S. (1969);samp. 7;;NEW ZEALAND / SOUTH ISLAND / OTAGO / DUNEDIN;DYKE PINE HILL, DUNEDIN;-45.6;170.5;-45.8;170.8;;;OUTCROP;;;SUBAERIAL;VOLCANIC ROCK;BENMOREITE;;DYKE;;;;;;;;;;WHOLE ROCK;;;;;;;;;;52.27;0.62;;;;19.92;;;;;;;;;3.08;;3.48;;3.71;0.53;0.2;;;;;;3.46;NOT;;;6.18;0.27;;;3.43;2.46;0.07;;;0.11;;;;;;;;;;;;;;;;;;;;;;;;;;;;;;;;;;;;;;;;;;;;;;;;;;;;;;;;;;;;;;;;;;;;;;;;;;;;;;;;;;;;;;;;;;;;;;;;;;;;;;;;;;;;;;;;;;;;;;;;;;;;;;;;;;;;;;;;;;;;;;;;;;;;;;;;;;;;;;;;;;;;;;;;;;;;;;;;;;;;;;;;;;;;;;;;;;;;;;;;;;;;;;;;;;;;;;;;;;;;;;;;;;;;;;;;;;;;;;;;;;;;;;;;;;;;;;;;;;;
1969;[10662] COOMBS D. S. (1969);samp. 11;;NEW ZEALAND / SOUTH ISLAND / OTAGO / EAST OTAGO VOLCANIC PROVINCE;E OF KINLOCH HOTEL, NULL;-45.6;170.5;-45.8;170.8;;;OUTCROP;;;SUBAERIAL;VOLCANIC ROCK;BENMOREITE;;;;;;;;;;;;WHOLE ROCK;;;;;;;;;;55.76;1.78;;;;16.55;;;;;;;;;3.1;;6.02;;3.23;1.08;0.22;;;;;;3.87;NOT;;;6.28;0.4;;;0.95;0.8;0.03;;;;;;;;;;;;;;;;;;;;;;;;;;;;;;;;;;;;;;;;;;;;;;;;;;;;;;;;;;;;;;;;;;;;;;;;;;;;;;;;;;;;;;;;;;;;;;;;;;;;;;;;;;;;;;;;;;;;;;;;;;;;;;;;;;;;;;;;;;;;;;;;;;;;;;;;;;;;;;;;;;;;;;;;;;;;;;;;;;;;;;;;;;;;;;;;;;;;;;;;;;;;;;;;;;;;;;;;;;;;;;;;;;;;;;;;;;;;;;;;;;;;;;;;;;;;;;;;;;;;;;
1980;[10737] MAURY R. C. (1980);samp. CP5;;EUROPEAN OROGENIC BELT - CENOZOIC/QUATERNARY / FRANCE / FRENCH MASSIF CENTRAL / CHAINE DES PUYS;PUY DE LA NUGERE;45.67;2.98;45.67;2.98;;;OUTCROP;;;SUBAERIAL;VOLCANIC ROCK;BENMOREITE;;;;;CENOZOIC;;;;;;;WHOLE ROCK;;;;;;;;;;57.1;1.12;;;;17.89;;;;;;;;6.83;;;;;4.53;1.94;0.19;;;;;;3.4;EMP (EPMA);;;5.42;0.55;;;;;;;;;;;;-0.05;;;;;;;;;;;;;;;;;;;;;;;;;;;;;;;;;;;;;;;;;;;;;;;;;;;;;;;;;;;;;;;;;;;;;;;;;;;;;;;;;;;;;;;;;;;;;;;;;;;;;;;;;;;;;;;;;;;;;;;;;;;;;;;;;;;;;;;;;;;;;;;;;;;;;;;;;;;;;;;;;;;;;;;;;;;;;;;;;;;;;;;;;;;;;;;;;;;;;;;;;;;;;;;;;;;;;;;;;;;;;;;;;;;;;;;;;;;;;;;;;;;;;;;;;;;;;;;
1980;[10737] MAURY R. C. (1980);samp. CP6;;EUROPEAN OROGENIC BELT - CENOZOIC/QUATERNARY / FRANCE / FRENCH MASSIF CENTRAL / CHAINE DES PUYS;CLIERZOU;45.67;2.98;45.67;2.98;;;OUTCROP;;;SUBAERIAL;VOLCANIC ROCK;BENMOREITE;;;;;CENOZOIC;;;;;;;WHOLE ROCK;;;;;;;;;;60.2;0.83;;;;17.9;;;;;;;;4.69;;;;;3.1;1.07;0.22;;;;;;3.82;EMP (EPMA);;;5.58;0.31;;;;;;;;;;;;0.77;;;;;;;;;;;;;;;;;;;;;;;;;;;;;;;;;;;;;;;;;;;;;;;;;;;;;;;;;;;;;;;;;;;;;;;;;;;;;;;;;;;;;;;;;;;;;;;;;;;;;;;;;;;;;;;;;;;;;;;;;;;;;;;;;;;;;;;;;;;;;;;;;;;;;;;;;;;;;;;;;;;;;;;;;;;;;;;;;;;;;;;;;;;;;;;;;;;;;;;;;;;;;;;;;;;;;;;;;;;;;;;;;;;;;;;;;;;;;;;;;;;;;;;;;;;;;;;
1980;[10737] MAURY R. C. (1980);samp. CP5;;EUROPEAN OROGENIC BELT - CENOZOIC/QUATERNARY / FRANCE / FRENCH MASSIF CENTRAL / CHAINE DES PUYS;PUY DE LA NUGERE;45.67;2.98;45.67;2.98;;;OUTCROP;;;SUBAERIAL;VOLCANIC ROCK;BENMOREITE;;;;;CENOZOIC;;;;;;;MINERAL / COMPONENT (INCL. GROUNDMASS);MAGNETITE;;MICROCRYST;;PRIMARY;;;;;;18.67;;;;1.58;0;;;;;;;;31.06;;47.22;;;1.1;0.59;;;;;;0;EMP (EPMA);;;0.14;;;;;;;;;;;;;;;;;;;;;;;;;;;;;;;;;;;;;;;;;;;;;;;;;;;;;;;;;;;;;;;;;;;;;;;;;;;;;;;;;;;;;;;;;;;;;;;;;;;;;;;;;;;;;;;;;;;;;;;;;;;;;;;;;;;;;;;;;;;;;;;;;;;;;;;;;;;;;;;;;;;;;;;;;;;;;;;;;;;;;;;;;;;;;;;;;;;;;;;;;;;;;;;;;;;;;;;;;;;;;;;;;;;;;;;;;;;;;;;;;;;;;;;;;;;;;;;;;;;;;;;;;;;;
1980;[10737] MAURY R. C. (1980);samp. CP5;;EUROPEAN OROGENIC BELT - CENOZOIC/QUATERNARY / FRANCE / FRENCH MASSIF CENTRAL / CHAINE DES PUYS;PUY DE LA NUGERE;45.67;2.98;45.67;2.98;;;OUTCROP;;;SUBAERIAL;VOLCANIC ROCK;BENMOREITE;;;;;CENOZOIC;;;;;;;MINERAL / COMPONENT (INCL. GROUNDMASS);ILMENITE;;MICROCRYST;;PRIMARY;;;;;;49.91;;;;0.48;0;;;;;;;;6.61;;40.57;;;2.15;1.14;;;;;;0.07;EMP (EPMA);;;0;;;;;;;;;;;;;;;;;;;;;;;;;;;;;;;;;;;;;;;;;;;;;;;;;;;;;;;;;;;;;;;;;;;;;;;;;;;;;;;;;;;;;;;;;;;;;;;;;;;;;;;;;;;;;;;;;;;;;;;;;;;;;;;;;;;;;;;;;;;;;;;;;;;;;;;;;;;;;;;;;;;;;;;;;;;;;;;;;;;;;;;;;;;;;;;;;;;;;;;;;;;;;;;;;;;;;;;;;;;;;;;;;;;;;;;;;;;;;;;;;;;;;;;;;;;;;;;;;;;;;;;;;;;;
1980;[10737] MAURY R. C. (1980);samp. CP6;;EUROPEAN OROGENIC BELT - CENOZOIC/QUATERNARY / FRANCE / FRENCH MASSIF CENTRAL / CHAINE DES PUYS;CLIERZOU;45.67;2.98;45.67;2.98;;;OUTCROP;;;SUBAERIAL;VOLCANIC ROCK;BENMOREITE;;;;;CENOZOIC;;;;;;;MINERAL / COMPONENT (INCL. GROUNDMASS);MAGNETITE;;PHENOCRYST;CORE;PRIMARY;;;;;;7.09;;;;1.05;0;;;;;;;;55.47;;29.4;;;3.68;3.19;;;;;;0.01;EMP (EPMA);;;0.09;;;;;;;;;;;;;;;;;;;;;;;;;;;;;;;;;;;;;;;;;;;;;;;;;;;;;;;;;;;;;;;;;;;;;;;;;;;;;;;;;;;;;;;;;;;;;;;;;;;;;;;;;;;;;;;;;;;;;;;;;;;;;;;;;;;;;;;;;;;;;;;;;;;;;;;;;;;;;;;;;;;;;;;;;;;;;;;;;;;;;;;;;;;;;;;;;;;;;;;;;;;;;;;;;;;;;;;;;;;;;;;;;;;;;;;;;;;;;;;;;;;;;;;;;;;;;;;;;;;;;;;;;;;;
1980;[10737] MAURY R. C. (1980);samp. CP6;;EUROPEAN OROGENIC BELT - CENOZOIC/QUATERNARY / FRANCE / FRENCH MASSIF CENTRAL / CHAINE DES PUYS;CLIERZOU;45.67;2.98;45.67;2.98;;;OUTCROP;;;SUBAERIAL;VOLCANIC ROCK;BENMOREITE;;;;;CENOZOIC;;;;;;;MINERAL / COMPONENT (INCL. GROUNDMASS);MAGNETITE;;MICROCRYST;;PRIMARY;;;;;;7.17;;;;0.21;0;;;;;;;;54.75;;28.64;;0.07;3.03;3.65;;;;;;0.06;EMP (EPMA);;;0.03;;;;;;;;;;;;;;;;;;;;;;;;;;;;;;;;;;;;;;;;;;;;;;;;;;;;;;;;;;;;;;;;;;;;;;;;;;;;;;;;;;;;;;;;;;;;;;;;;;;;;;;;;;;;;;;;;;;;;;;;;;;;;;;;;;;;;;;;;;;;;;;;;;;;;;;;;;;;;;;;;;;;;;;;;;;;;;;;;;;;;;;;;;;;;;;;;;;;;;;;;;;;;;;;;;;;;;;;;;;;;;;;;;;;;;;;;;;;;;;;;;;;;;;;;;;;;;;;;;;;;;;;;;;;
1980;[10737] MAURY R. C. (1980);samp. CP5;;EUROPEAN OROGENIC BELT - CENOZOIC/QUATERNARY / FRANCE / FRENCH MASSIF CENTRAL / CHAINE DES PUYS;PUY DE LA NUGERE;45.67;2.98;45.67;2.98;;;OUTCROP;;;SUBAERIAL;VOLCANIC ROCK;BENMOREITE;;;;;CENOZOIC;;;;;;;MINERAL / COMPONENT (INCL. GROUNDMASS);OLIVINE;;MICROCRYST;;PRIMARY;;;;;35.27;0;;;;0;0;;;;;;;;;;36.62;;0.17;25.24;1.98;;;;;;0;EMP (EPMA);;;0;;;;;;;;;;;;;;;;;;;;;;;;;;;;;;;;;;;;;;;;;;;;;;;;;;;;;;;;;;;;;;;;;;;;;;;;;;;;;;;;;;;;;;;;;;;;;;;;;;;;;;;;;;;;;;;;;;;;;;;;;;;;;;;;;;;;;;;;;;;;;;;;;;;;;;;;;;;;;;;;;;;;;;;;;;;;;;;;;;;;;;;;;;;;;;;;;;;;;;;;;;;;;;;;;;;;;;;;;;;;;;;;;;;;;;;;;;;;;;;;53.8;;;;;;;;;;;;;;;;;;;;;;;;;;;;