Year;CITATION;SAMPLE NAME;UNIQUE_ID;LOCATION;LOCATION COMMENT;LATITUDE (MIN.);LONGITUDE (MIN.);LATITUDE (MAX.);LONGITUDE (MAX.);ELEVATION (MIN.);ELEVATION (MAX.);SAMPLING TECHNIQUE;DRILLING DEPTH (MIN.);DRILLING DEPTH (MAX.);LAND/SEA (SAMPLING);ROCK TYPE;ROCK NAME;ROCK TEXTURE;SAMPLE COMMENT;AGE (MIN.);AGE (MAX.);GEOLOGICAL AGE;GEOLOGICAL AGE PREFIX;ERUPTION DAY;ERUPTION MONTH;ERUPTION YEAR;ALTERATION;ALTERATION TYPE;TYPE OF MATERIAL;MINERAL / COMPONENT;SPOT (MINERAL);CRYSTAL;RIM / CORE (MINERAL GRAINS);PRIMARY/SECONDARY;INCLUSION TYPE;MINERAL (INCLUSION);HOSTMINERAL (INCLUSION);HEATING;SIO2(WT%);TIO2(WT%);ZRO2(WT%);HFO2(WT%);THO2(WT%);AL2O3(WT%);CR2O3(WT%);LA2O3(WT%);CE2O3(WT%);ND2O3(WT%);SM2O3(WT%);V2O3(WT%);NB2O5(WT%);FE2O3T(WT%);FE2O3(WT%);FEOT(WT%);FEO(WT%);FET(WT%);CAO(WT%);MGO(WT%);MNO(WT%);BAO(WT%);SRO(WT%);NIO(WT%);ZNO(WT%);RB2O(WT%);K2O(WT%);;;;NA2O(WT%);P2O5(WT%);AS2O5(WT%);H2O(WT%);H2OP(WT%);H2OM(WT%);CO2(WT%);C(WT%);F(WT%);CL(WT%);OH(WT%);SO3(WT%);S(WT%);LOI(WT%);TI(WT%);CA(WT%);K(WT%);LI(PPM);BE(PPM);B(PPM);F(PPM);P(PPM);S(PPM);CL(PPM);AR40(AT/G);;;;AR40(CCMSTP/G);;;;AR40(MOL/G);;;;AR40(PPB);K(PPM);SC(PPM);;;;TI(PPM);V(PPM);;;;CR(PPM);;;;CO(PPM);;;;NI(PPM);;;;CU(PPM);;;;ZN(PPM);;;;GA(PPM);;;;GE(PPM);AS(PPM);AS(PPB);SE(PPM);RB(PPM);;;;;;SR(PPM);;;;;;Y(PPM);;;;ZR(PPM);;;;NB(PPM);;;;MO(PPM);AG(PPM);CD(PPM);IN(PPM);SN(PPM);SB(PPM): altern. values or methods;;;;TE(PPM);CS(PPM): altern. values or methods;;;;BA(PPM): altern. values or methods;;;;LA(PPM): altern. values or methods;;;;CE(PPM): altern. values or methods;;;;PR(PPM);ND(PPM): altern. values or methods;;;;;;SM(PPM): altern. values or methods;;;;EU(PPM): altern. values or methods;;;;GD(PPM): altern. values or methods;;;;TB(PPM): altern. values or methods;;;;DY(PPM): altern. values or methods;;;;HO(PPM);ER(PPM): altern. values or methods;;;;TM(PPM);YB(PPM): altern. values or methods;;;;LU(PPM);HF(PPM);TA(PPM);W(PPM);RE(PPM);AU(PPM);HG(PPM);HG(PPB);TL(PPM);PB(PPM): altern. values or methods;;;;BI(PPM);PO210_ACT(DPM/G);RA226_ACT(DPM/G);TH(PPM): altern. values or methods;;;;U(PPM): altern. values or methods;;;;ND143_ND144;ND143_ND144_INI;EPSILON_ND;EPSILON_ND_INI;SM147_ND144;SR87_SR86;SR87_SR86_INI;EPSILON_SR_INI;RB87_SR86;PB206_PB204: altern. values or methods;;;;PB206_PB204_INI;PB207_PB204: altern. values or methods;;;;PB207_PB204_INI;PB207_PB206;PB208_PB204: altern. values or methods;;;;PB208_PB204_INI;PB208_PB206;HF176_HF177;LU176_HF177;AR38_AR36;AR40_AR36;AR40_AR36_INI;PB206_U238;PB207_U235;RA226_TH230_ACT;PA231_U235_ACT;TH230_TH232_ACT;TH230_U238_ACT;TH232_PB204;U234_U238_ACT;U235_PB204;U238_PB204;U238_TH232_ACT;D7LI(VS LSVEC);D13C(VS PDB);D18O(PER MIL);D18O(VS SMOW);D18O(VS VSMOW);D34S(VS VCDT);ALBITE(MOL%);ANORTHITE(MOL%);CA OLIVINE(MOL%);CHROMITE(MOL%);ENSTATITE(MOL%);FAYALITE(MOL%);FORSTERITE(MOL%);FERROSILITE(MOL%);HEMATITE(MOL%);HERCYNITE(MOL%);ILMENITE(MOL%);MAGNESIOFERRITE(MOL%);MONTICELLITE(MOL%);MAGNETITE(MOL%);ORTHOCLASE(MOL%);PICROCHROMITE(MOL%);SPINEL(MOL%);TEPHROITE(MOL%);ULVOSPINEL(MOL%);WOLLASTONITE(MOL%);AGE(KA): altern. values or methods;;;;;;AGE(MA): altern. values or methods;;;;;;AGE_PB207_U235(MA);AGE_PB206_U238(MA);
1977;[1261] HAVETTE A. (1977);samp. 1;;MASCARENE ISLANDS INCL. REUNION / REUNION / PITON DES NEIGES;CIRQUE DE SALAZIE, RIGHT BANK OF MAT RIVER;-21.05;55.54;-21.05;55.54;1430;1430;OUTCROP;;;SUBAERIAL;VOLCANIC ROCK;BENMOREITE;;IGNIMBRITE;;;;;;;;SLIGHTLY ALTERED;;MINERAL / COMPONENT (INCL. GROUNDMASS);CLINOPYROXENE;2;;;PRIMARY;;;;;50.05;1.75;;;;3.59;;;;;;;;;;7.37;;;21.54;13.88;;;;;;;0;EMP (EPMA);;;0.42;;;;;;;;;;;;;;;;;;;;;;;;;;;;;;;;;;;;;;;;;;;;;;;;;;;;;;;;;;;;;;;;;;;;;;;;;;;;;;;;;;;;;;;;;;;;;;;;;;;;;;;;;;;;;;;;;;;;;;;;;;;;;;;;;;;;;;;;;;;;;;;;;;;;;;;;;;;;;;;;;;;;;;;;;;;;;;;;;;;;;;;;;;;;;;;;;;;;;;;;;;;;;;;;;;;;;;;;;;;;;;;;;;;;;;;;;;;;;;;;;;;;;;;;;;;;;;;;;;;;;;;;;;;;
1977;[1261] HAVETTE A. (1977);samp. 1;;MASCARENE ISLANDS INCL. REUNION / REUNION / PITON DES NEIGES;CIRQUE DE SALAZIE, RIGHT BANK OF MAT RIVER;-21.05;55.54;-21.05;55.54;1430;1430;OUTCROP;;;SUBAERIAL;VOLCANIC ROCK;BENMOREITE;;IGNIMBRITE;;;;;;;;SLIGHTLY ALTERED;;MINERAL / COMPONENT (INCL. GROUNDMASS);CLINOPYROXENE;3;;;PRIMARY;;;;;48.54;2.16;;;;3.65;;;;;;;;;;8.79;;;21.71;13.67;;;;;;;;;;;;;;;;;;;;;;;;;;;;;;;;;;;;;;;;;;;;;;;;;;;;;;;;;;;;;;;;;;;;;;;;;;;;;;;;;;;;;;;;;;;;;;;;;;;;;;;;;;;;;;;;;;;;;;;;;;;;;;;;;;;;;;;;;;;;;;;;;;;;;;;;;;;;;;;;;;;;;;;;;;;;;;;;;;;;;;;;;;;;;;;;;;;;;;;;;;;;;;;;;;;;;;;;;;;;;;;;;;;;;;;;;;;;;;;;;;;;;;;;;;;;;;;;;;;;;;;;;;;;;;;;;;;;;;;
1977;[1261] HAVETTE A. (1977);samp. 1;;MASCARENE ISLANDS INCL. REUNION / REUNION / PITON DES NEIGES;CIRQUE DE SALAZIE, RIGHT BANK OF MAT RIVER;-21.05;55.54;-21.05;55.54;1430;1430;OUTCROP;;;SUBAERIAL;VOLCANIC ROCK;BENMOREITE;;IGNIMBRITE;;;;;;;;SLIGHTLY ALTERED;;MINERAL / COMPONENT (INCL. GROUNDMASS);CLINOPYROXENE;4;;;PRIMARY;;;;;47.88;2.16;;;;4.1;;;;;;;;;;8.46;;;21.39;13.75;;;;;;;;;;;;;;;;;;;;;;;;;;;;;;;;;;;;;;;;;;;;;;;;;;;;;;;;;;;;;;;;;;;;;;;;;;;;;;;;;;;;;;;;;;;;;;;;;;;;;;;;;;;;;;;;;;;;;;;;;;;;;;;;;;;;;;;;;;;;;;;;;;;;;;;;;;;;;;;;;;;;;;;;;;;;;;;;;;;;;;;;;;;;;;;;;;;;;;;;;;;;;;;;;;;;;;;;;;;;;;;;;;;;;;;;;;;;;;;;;;;;;;;;;;;;;;;;;;;;;;;;;;;;;;;;;;;;;;;
1977;[1261] HAVETTE A. (1977);samp. 1;;MASCARENE ISLANDS INCL. REUNION / REUNION / PITON DES NEIGES;CIRQUE DE SALAZIE, RIGHT BANK OF MAT RIVER;-21.05;55.54;-21.05;55.54;1430;1430;OUTCROP;;;SUBAERIAL;VOLCANIC ROCK;BENMOREITE;;IGNIMBRITE;;;;;;;;SLIGHTLY ALTERED;;MINERAL / COMPONENT (INCL. GROUNDMASS);GROUNDMASS;1;;;PRIMARY;;;;;67.8;;;;;18.7;;;;;;;;;;;;;0.7;;;;;;;;5.9;SIMS;;;7;;;;;;;;;;;;;;;;;;;;;;;;;;;;;;;;;;;;;;;;;;;;;;;;;;;;;;;;;;;;;;;;;;;;;;;;;;;;;;;;;;;;;;;;;;;;;;;;;;;;;;;;;;;;;;;;;;;;;;;;;;;;;;;;;;;;;;;;;;;;;;;;;;;;;;;;;;;;;;;;;;;;;;;;;;;;;;;;;;;;;;;;;;;;;;;;;;;;;;;;;;;;;;;;;;;;;;;;;;;;;;;;;;;;;;;;;;;;;;;;;;;;;;;;;;;;;;;;;;;;;;;;;;;;
1977;[1261] HAVETTE A. (1977);samp. 1;;MASCARENE ISLANDS INCL. REUNION / REUNION / PITON DES NEIGES;CIRQUE DE SALAZIE, RIGHT BANK OF MAT RIVER;-21.05;55.54;-21.05;55.54;1430;1430;OUTCROP;;;SUBAERIAL;VOLCANIC ROCK;BENMOREITE;;IGNIMBRITE;;;;;;;;SLIGHTLY ALTERED;;MINERAL / COMPONENT (INCL. GROUNDMASS);GROUNDMASS;2;;;PRIMARY;;;;;68.2;;;;;13.9;;;;;;;;;3.3;;;;1.2;0.1;;;;;;;4.6;SIMS;;;6.7;;;2;;;;;;;;;;;;;;;;;;;;;;;;;;;;;;;;;;;;;;;;;;;;;;;;;;;;;;;;;;;;;;;;;;;;;;;;;;;;;;;;;;;;;;;;;;;;;;;;;;;;;;;;;;;;;;;;;;;;;;;;;;;;;;;;;;;;;;;;;;;;;;;;;;;;;;;;;;;;;;;;;;;;;;;;;;;;;;;;;;;;;;;;;;;;;;;;;;;;;;;;;;;;;;;;;;;;;;;;;;;;;;;;;;;;;;;;;;;;;;;;;;;;;;;;;;;;;;;;;;;;;;;;;
1977;[1261] HAVETTE A. (1977);samp. 1;;MASCARENE ISLANDS INCL. REUNION / REUNION / PITON DES NEIGES;CIRQUE DE SALAZIE, RIGHT BANK OF MAT RIVER;-21.05;55.54;-21.05;55.54;1430;1430;OUTCROP;;;SUBAERIAL;VOLCANIC ROCK;BENMOREITE;;IGNIMBRITE;;;;;;;;SLIGHTLY ALTERED;;MINERAL / COMPONENT (INCL. GROUNDMASS);GROUNDMASS;3;;;PRIMARY;;;;;65.6;;;;;13.9;;;;;;;;;4.3;;;;1.2;0.06;;;;;;;4.6;SIMS;;;8.3;;;2;;;;;;;;;;;;;;;;;;;;;;;;;;;;;;;;;;;;;;;;;;;;;;;;;;;;;;;;;;;;;;;;;;;;;;;;;;;;;;;;;;;;;;;;;;;;;;;;;;;;;;;;;;;;;;;;;;;;;;;;;;;;;;;;;;;;;;;;;;;;;;;;;;;;;;;;;;;;;;;;;;;;;;;;;;;;;;;;;;;;;;;;;;;;;;;;;;;;;;;;;;;;;;;;;;;;;;;;;;;;;;;;;;;;;;;;;;;;;;;;;;;;;;;;;;;;;;;;;;;;;;;;;
1977;[1261] HAVETTE A. (1977);samp. 1;;MASCARENE ISLANDS INCL. REUNION / REUNION / PITON DES NEIGES;CIRQUE DE SALAZIE, RIGHT BANK OF MAT RIVER;-21.05;55.54;-21.05;55.54;1430;1430;OUTCROP;;;SUBAERIAL;VOLCANIC ROCK;BENMOREITE;;IGNIMBRITE;;;;;;;;SLIGHTLY ALTERED;;MINERAL / COMPONENT (INCL. GROUNDMASS);GROUNDMASS;4;;;PRIMARY;;;;;65;;;;;17.2;;;;;;;;;;;;;0.4;;;;;;;;9;SIMS;;;3.2;;;5;;;;;;;;;;;;;;;;;;;;;;;;;;;;;;;;;;;;;;;;;;;;;;;;;;;;;;;;;;;;;;;;;;;;;;;;;;;;;;;;;;;;;;;;;;;;;;;;;;;;;;;;;;;;;;;;;;;;;;;;;;;;;;;;;;;;;;;;;;;;;;;;;;;;;;;;;;;;;;;;;;;;;;;;;;;;;;;;;;;;;;;;;;;;;;;;;;;;;;;;;;;;;;;;;;;;;;;;;;;;;;;;;;;;;;;;;;;;;;;;;;;;;;;;;;;;;;;;;;;;;;;;;
1975;[1262] ZIELINSKI R. A. (1975);samp. RE100;9668;MASCARENE ISLANDS INCL. REUNION / REUNION / PITON DES NEIGES / DIFFERENTIATED SERIES;SUMMIT, COTEAU KERVEGUEN, CLOSE TO CAVERNE DUFOURG;-21;55.85;-21;55.85;;;OUTCROP;;;SUBAERIAL;VOLCANIC ROCK;BENMOREITE;;;;;;;;;;;;MINERAL / COMPONENT (INCL. GROUNDMASS);CLINOPYROXENE;;PHENOCRYST;;PRIMARY;;;;;51.3;0.78;;;;2.32;;;;;;;;;;10.51;;;20.37;13.29;0.48;;;;;;0.11;EMP (EPMA);;;0.49;;;;;;;;;;;;;;;;;;;;;;;;;;;;;;;;;;;;;;;;;;;;;;;;;;;;;;;;;;;;;;;;;;;;;;;;;;;;;;;;;;;;;;;;;;;;;;;;;;;;;;;;;;;;;;;;;;;;;;;;;;;;;;;;;;;;;;;;;;;;;;;;;;;;;;;;;;;;;;;;;;;;;;;;;;;;;;;;;;;;;;;;;;;;;;;;;;;;;;;;;;;;;;;;;;;;;;;;;;;;;;;;;;;;;;;;;;;;;;;;;;;;;;;;;;;;;;;;;;;;;;;;;;;;
1975;[1262] ZIELINSKI R. A. (1975);samp. RE356;9674;MASCARENE ISLANDS INCL. REUNION / REUNION / PITON DES NEIGES / DIFFERENTIATED SERIES;CIRQUE DE SALAZIE, INTRUSIVE SHEET FORMING RIVER BED AT ROCHE PLATE;-21;55.85;-21;55.85;;;OUTCROP;;;SUBAERIAL;VOLCANIC ROCK;BENMOREITE;;;;;;;;;;;;WHOLE ROCK;;;;;;;;;;;;;;;;;;;;;;;;;;;;;;;;;;;;;;;;;;;;;;;;;;;;;;;;;;;;;;;;;;;;;;;;;;;;;;;;;;;;;;;;;;;;;;;;;;;;;;;;;;;;;;;;;;;;;;;;;;;;;;;;;;;;;;;;;;;;;;;;;;;;;;;;;;;;;;;;;;;;;;;;;;;;;;;;;;;;;;;;;;;;;;;;;;;;;;;;;;;;;;;;;;;;;;;;;;8.6;DNAA;;;1.5;DNAA;;;;;;;;;;;;;;;;;;;;;;;;;;;;;;;;;;;;;;;;;;;;;;;;;;;;;;;;;;;;;;;;;;;;;;;;;;;;;;;;;;;;;
1975;[1262] ZIELINSKI R. A. (1975);samp. RE100;9668;MASCARENE ISLANDS INCL. REUNION / REUNION / PITON DES NEIGES / DIFFERENTIATED SERIES;SUMMIT, COTEAU KERVEGUEN, CLOSE TO CAVERNE DUFOURG;-21;55.85;-21;55.85;;;OUTCROP;;;SUBAERIAL;VOLCANIC ROCK;BENMOREITE;;;;;;;;;;;;WHOLE ROCK;;;;;;;;;;;;;;;;;;;;;;;;;;;;;;;;;;;;;;;;;;;;;;;;;;;;;;;;;;;;;;;;;;;;;;;;;;;;;;;;;;;;;;;;;;;;;;;;;;;;;;;;;;;;;;;;;;;;;;;;;;;;;;;;;;;;;;;;;;;;;;;;;;;;;;;;;;;;;;;;;;;;;;;;;;;;;;;;;;;;;;;;;;;;;;;;;;;;;;;;;;;;;;;;;;;;;;;;;;10.4;DNAA;;;2.5;DNAA;;;;;;;;;;;;;;;;;;;;;;;;;;;;;;;;;;;;;;;;;;;;;;;;;;;;;;;;;;;;;;;;;;;;;;;;;;;;;;;;;;;;;
1973;[1279] FLOWER M. F. J. (1973);samp. 5;;COMOROS / ANJOUAN (NZWANI) / FISSURE STAGE;;-12.15;44.3;-12.15;44.3;;;OUTCROP;;;SUBAERIAL;VOLCANIC ROCK;BENMOREITE;;;;;;;;;;;;WHOLE ROCK;;;;;;;;;;55.59;1.63;;;;18.65;;;;;;;;;3.9;;4.1;;4.52;1.41;0.21;;;;;;2.68;WET;;;5.81;0.42;;;0.88;;;;;;;;;;;;;;;;;;;;;;;;;;;;;;;;;;;;;;;;;;;;;;;;;;;;;;;;;;;;;;;;;;;;;;;;;;;;;;;;;;;;;;;;;;;;;;;;;;;;;;;;;;;;;;;;;;;;;;;;;;;;;;;;;;;;;;;;;;;;;;;;;;;;;;;;;;;;;;;;;;;;;;;;;;;;;;;;;;;;;;;;;;;;;;;;;;;;;;;;;;;;;;;;;;;;;;;;;;;;;;;;;;;;;;;;;;;;;;;;;;;;;;;;;;;;;;;;;;;;;;;;
1973;[1279] FLOWER M. F. J. (1973);samp. 10;;COMOROS / ANJOUAN (NZWANI) / DIFFERENTIATED STAGE;;-12.15;44.3;-12.15;44.3;;;OUTCROP;;;SUBAERIAL;VOLCANIC ROCK;BENMOREITE, NEPHELINE;;;;;;;;;;;;WHOLE ROCK;;;;;;;;;;52.96;0.81;;;;18.95;;;;;;;;;3.73;;5.42;;4.33;1.28;0.17;;;;;;3.4;WET;;;7.44;0.45;;;0.8;;;;;;;;;;;;;;;;;;;;;;;;;;;;;;;;;;;;;;;;;;;;;;;;;;;;;;;;;;;;;;;;;;;;;;;;;;;;;;;;;;;;;;;;;;;;;;;;;;;;;;;;;;;;;;;;;;;;;;;;;;;;;;;;;;;;;;;;;;;;;;;;;;;;;;;;;;;;;;;;;;;;;;;;;;;;;;;;;;;;;;;;;;;;;;;;;;;;;;;;;;;;;;;;;;;;;;;;;;;;;;;;;;;;;;;;;;;;;;;;;;;;;;;;;;;;;;;;;;;;;;;;
1976;[1280] SELF S. (1976);samp. T-0086;;AZORES / TERCEIRA;SOUTHEAST OF PICO DA CANCELA , THIN FLOW IN FAULT SCARP;38.72;-27.22;38.72;-27.22;;;OUTCROP;;;SUBAERIAL;VOLCANIC ROCK;BENMOREITE;;;;;;;;;;;;WHOLE ROCK;;;;;;;;;;58.61;1.17;;;;15.79;;;;;;;;8.39;;;;;3.78;1.33;0.24;;;;;;3.29;XRF;;;7.08;0.31;;;;;;;;;;;;;;;;;;;;;;;;;;;;;;;;;;;;;;;;;;;;;;;;;;;;;;;;;;;;;;;;;;;;;;;;;;68;XRF;;;;;450.2;XRF;;;;;;;;;;;;;;;;;;;;;;;;;;;;;;;;;;;;;;;;;;;;;;;;;;;;;;;;;;;;;;;;;;;;;;;;;;;;;;;;;;;;;;;;;;;;;;;;;;;;;;;;;;;;;;;;;;;;;;;;;;;;;;;;;;;;;;;;;;;;;;;;;;;;;;;;;;;;;;;;;;;;;;;;;;;;;;;;;;;;;;;;;;
1976;[1280] SELF S. (1976);samp. S-0086;;AZORES / TERCEIRA / PICO DA FALTA;;38.72;-27.22;38.72;-27.22;;;OUTCROP;;;SUBAERIAL;VOLCANIC ROCK;BENMOREITE;;;;;;;;;;;;WHOLE ROCK;;;;;;;;;;57.12;1.69;;;;16.89;;;;;;;;8.2;;;;;4.69;2.09;0.2;;;;;;2.58;XRF;;;5.99;0.56;;;;;;;;;;;;;;;;;;;;;;;;;;;;;;;;;;;;;;;;;;;;;;;;;;;;;;;;;;;;;;;;;;;;;;;;;;;;;;;;;;;;;;;;;;;;;;;;;;;;;;;;;;;;;;;;;;;;;;;;;;;;;;;;;;;;;;;;;;;;;;;;;;;;;;;;;;;;;;;;;;;;;;;;;;;;;;;;;;;;;;;;;;;;;;;;;;;;;;;;;;;;;;;;;;;;;;;;;;;;;;;;;;;;;;;;;;;;;;;;;;;;;;;;;;;;;;;;;;;;;;;;;;;
1976;[1280] SELF S. (1976);samp. T-2067;;AZORES / TERCEIRA / SANTA BARBARA;BOTTOM FLOW IN CALDERA  WALL, SOUTHWEST SIDE;38.72;-27.22;38.72;-27.22;;;OUTCROP;;;SUBAERIAL;VOLCANIC ROCK;BENMOREITE;;;;;;;;;;;;WHOLE ROCK;;;;;;;;;;57.36;1.43;;;;16.71;;;;;;;;8.61;;;;;5.48;2.71;0.16;;;;;;2.38;XRF;;;5.17;;;;;;;;;;;;;;;;;;;;;;;;;;;;;;;;;;;;;;;;;;;;;;;;;;;;;;;;;;;;;;;;;;;;;;;;;;;51.3;XRF;;;;;581;XRF;;;;;;;;;;;;;;;;;;;;;;;;;;;;;;;;;;;;;;;;;;;;;;;;;;;;;;;;;;;;;;;;;;;;;;;;;;;;;;;;;;;;;;;;;;;;;;;;;;;;;;;;;;;;;;;;;;;;;;;;;;;;;;;;;;;;;;;;;;;;;;;;;;;;;;;;;;;;;;;;;;;;;;;;;;;;;;;;;;;;;;;;;;
1996;[1303] SPAETH A. (1996);samp. MA-14A;;COMOROS / MAYOTTE (MAHORE) / DIFFERENTIATED STAGE;;-12.75;45.2;-12.75;45.2;;;OUTCROP;;;SUBAERIAL;VOLCANIC ROCK;BENMOREITE;MODERATELY PORPHYRITIC, FINE-GRAINED, SUBTRACHYTIC TO TRACHYTIC GROUNDMASS;;;;;;;;;FRESH;;MINERAL / COMPONENT (INCL. GROUNDMASS);CLINOPYROXENE;;;;PRIMARY;;;;;49.79;1.38;;;;4.88;0.3;;;;;;;;;;7.09;;21.49;14.46;0.13;;;;;;;;;;0.54;;;;;;;;;;;;;;;;;;;;;;;;;;;;;;;;;;;;;;;;;;;;;;;;;;;;;;;;;;;;;;;;;;;;;;;;;;;;;;;;;;;;;;;;;;;;;;;;;;;;;;;;;;;;;;;;;;;;;;;;;;;;;;;;;;;;;;;;;;;;;;;;;;;;;;;;;;;;;;;;;;;;;;;;;;;;;;;;;;;;;;;;;;;;;;;;;;;;;;;;;;;;;;;;;;;;;;;;;;;;;;;;;;;;;;;;;;;;;;43;;;12;;;;;;;;;;;;45;;;;;;;;;;;;;;;
1996;[1303] SPAETH A. (1996);samp. MA-14A;;COMOROS / MAYOTTE (MAHORE) / DIFFERENTIATED STAGE;;-12.75;45.2;-12.75;45.2;;;OUTCROP;;;SUBAERIAL;VOLCANIC ROCK;BENMOREITE;MODERATELY PORPHYRITIC, FINE-GRAINED, SUBTRACHYTIC TO TRACHYTIC GROUNDMASS;;;;;;;;;FRESH;;WHOLE ROCK;;;;;;;;;;52.8;1.57;;;;17;;;;;;;;;0.98;;6.52;;5.38;2.65;0.17;;;;;;3.33;XRF;;;6.02;0.49;;;;0.6;;;;;;;;1.81;;;;;;;;;;;;;;;;;;;;;;;;;6.4;XRF;;;;75;XRF;;;38;XRF;;;20;XRF;;;30;XRF;;;21;XRF;;;100;XRF;;;;;;;;;;;105;XRF;;;;;887;XRF;;;;;25;XRF;;;572;XRF;;;116;XRF;;;;;;;;;;;;;;;;;936;XRF;;;72;XRF;;;135;XRF;;;;51;XRF;;;;;;;;;;;;;;;;;;;;;;;;;;;;;;;;;;;;;;;;;;;;;;;;;;;17.6;XRF;;;;;;;;;;;;;;;;;;;;;;;;;;;;;;;;;;;;;;;;;;;;;;;;;;;;;;;;;;;;;;;;;;;;;;;;;;;;;;;;;;;;;;;;;
1973;[1307] FLOWER M. F. J. (1973);samp. AJ-392;;COMOROS / ANJOUAN (NZWANI) / DIFFERENTIATED STAGE;;-12.17;44.41;-12.17;44.41;;;OUTCROP;;;SUBAERIAL;VOLCANIC ROCK;BENMOREITE;;;;;;;;;;;;WHOLE ROCK;;;;;;;;;;;;;;;;;;;;;;;;;4.1;;;;1.41;;;;;;;;;;;;;;;;;;;;;;;;;;;;;;;;;;;;;;;;;;;;;;;;;;;;;;;;;;;;;;;;;;;;;;;;;;139;XRF;;;;;;;;;;;70;XRF;;;;;780;XRF;;;;;39;XRF;;;425;XRF;;;;;;;;;;;;;;;;;;;;;810;XRF;;;;;;;;;;;;;;;;;;;;;;;;;;;;;;;;;;;;;;;;;;;;;;;;;;;;;;;;;;;;;;;;;;;;;;;;;;;;;;;;;;;;;;;;;;;;;;;;;;;;;;;;;;;;;;;;;;;;;;;;;;;;;;;;;;;;;;;;;;;;;;;;;;;;;;;;;;
1973;[1307] FLOWER M. F. J. (1973);samp. AJ-375;;COMOROS / ANJOUAN (NZWANI) / DIFFERENTIATED STAGE;;-12.17;44.41;-12.17;44.41;;;OUTCROP;;;SUBAERIAL;VOLCANIC ROCK;BENMOREITE, NEPHELINE;;;;;;;;;;;;WHOLE ROCK;;;;;;;;;;;;;;;;;;;;;;;;;5.44;;;;1.59;;;;;;;;;;;;;;;;;;;;;;;;;;;;;;;;;;;;;;;;;;;;;;;;;;;;;;;;;;3;XRF;;;;;;;7;XRF;;;;;;;127;XRF;;;;;;;;;;;109;XRF;;;;;1034;XRF;;;;;36;XRF;;;361;XRF;;;;;;;;;;;;;;;;;;;;;1250;XRF;;;;;;;;;;;;;;;;;;;;;;;;;;;;;;;;;;;;;;;;;;;;;;;;;;;;;;;;;;;;;;;;;;;;;;;;;;;;;;;;;;;;;;;;;;;;;;;;;;;;;;;;;;;;;;;;;;;;;;;;;;;;;;;;;;;;;;;;;;;;;;;;;;;;;;;;;;
1973;[1307] FLOWER M. F. J. (1973);samp. AJ-123;10468;COMOROS / ANJOUAN (NZWANI) / DIFFERENTIATED STAGE;;-12.17;44.41;-12.17;44.41;;;OUTCROP;;;SUBAERIAL;VOLCANIC ROCK;BENMOREITE, NEPHELINE;;;;;;;;;;;;WHOLE ROCK;;;;;;;;;;;;;;;;;;;;;;;;;5.81;;;;1.36;;;;;;;;;;;;;;;;;;;;;;;;;;;;;;;;;;;;;;;;;;;;;;;;;;;;;;;;;;5;XRF;;;;;;;9;XRF;;;;;;;138;XRF;;;;;;;;;;;115;XRF;;;;;1023;XRF;;;;;38;XRF;;;373;XRF;;;;;;;;;;;;;;;;;;;;;1180;XRF;;;;;;;;;;;;;;;;;;;;;;;;;;;;;;;;;;;;;;;;;;;;;;;;;;;;;;;;;;;;;;;;;;;;;;;;;;;;;;;;;;;;;;;;;;;;;;;;;;;;;;;;;;;;;;;;;;;;;;;;;;;;;;;;;;;;;;;;;;;;;;;;;;;;;;;;;;
1973;[1307] FLOWER M. F. J. (1973);samp. AJ-46;;COMOROS / ANJOUAN (NZWANI) / DIFFERENTIATED STAGE;;-12.17;44.41;-12.17;44.41;;;OUTCROP;;;SUBAERIAL;VOLCANIC ROCK;BENMOREITE, NEPHELINE;;;;;;;;;;;;WHOLE ROCK;;;;;;;;;;;;;;;;;;;;;;;;;5.75;;;;1.43;;;;;;;;;;;;;;;;;;;;;;;;;;;;;;;;;;;;;;;;;;;;;;;;;;;;;;;;;;5;XRF;;;;;;;9;XRF;;;;;;;131;XRF;;;;;;;;;;;117;XRF;;;;;1038;XRF;;;;;39;XRF;;;368;XRF;;;;;;;;;;;;;;;;;;;;;1200;XRF;;;;;;;;;;;;;;;;;;;;;;;;;;;;;;;;;;;;;;;;;;;;;;;;;;;;;;;;;;;;;;;;;;;;;;;;;;;;;;;;;;;;;;;;;;;;;;;;;;;;;;;;;;;;;;;;;;;;;;;;;;;;;;;;;;;;;;;;;;;;;;;;;;;;;;;;;;
1973;[1307] FLOWER M. F. J. (1973);samp. AJ-166;;COMOROS / ANJOUAN (NZWANI) / DIFFERENTIATED STAGE;;-12.17;44.41;-12.17;44.41;;;OUTCROP;;;SUBAERIAL;VOLCANIC ROCK;BENMOREITE, NEPHELINE;;;;;;;;;;;;WHOLE ROCK;;;;;;;;;;;;;;;;;;;;;;;;;5.85;;;;1.3;;;;;;;;;;;;;;;;;;;;;;;;;;;;;;;;;;;;;;;;;;;;;;;;;;;;;;;;;;3;XRF;;;;;;;5;XRF;;;;;;;142;XRF;;;;;;;;;;;121;XRF;;;;;750;XRF;;;;;34;XRF;;;375;XRF;;;;;;;;;;;;;;;;;;;;;1250;XRF;;;;;;;;;;;;;;;;;;;;;;;;;;;;;;;;;;;;;;;;;;;;;;;;;;;;;;;;;;;;;;;;;;;;;;;;;;;;;;;;;;;;;;;;;;;;;;;;;;;;;;;;;;;;;;;;;;;;;;;;;;;;;;;;;;;;;;;;;;;;;;;;;;;;;;;;;;
1973;[1307] FLOWER M. F. J. (1973);samp. AJ-122;;COMOROS / ANJOUAN (NZWANI) / DIFFERENTIATED STAGE;;-12.17;44.41;-12.17;44.41;;;OUTCROP;;;SUBAERIAL;VOLCANIC ROCK;BENMOREITE, NEPHELINE;;;;;;;;;;;;WHOLE ROCK;;;;;;;;;;;;;;;;;;;;;;;;;3.61;;;;0.88;;;;;;;;;;;;;;;;;;;;;;;;;;;;;;;;;;;;;;;;;;;;;;;;;;;;;;;;;;2;XRF;;;;;;;4;XRF;;;;;;;141;XRF;;;;;;;;;;;120;XRF;;;;;1099;XRF;;;;;35;XRF;;;400;XRF;;;;;;;;;;;;;;;;;;;;;1180;XRF;;;;;;;;;;;;;;;;;;;;;;;;;;;;;;;;;;;;;;;;;;;;;;;;;;;;;;;;;;;;;;;;;;;;;;;;;;;;;;;;;;;;;;;;;;;;;;;;;;;;;;;;;;;;;;;;;;;;;;;;;;;;;;;;;;;;;;;;;;;;;;;;;;;;;;;;;;
1973;[1307] FLOWER M. F. J. (1973);samp. AJ-42;;COMOROS / ANJOUAN (NZWANI) / DIFFERENTIATED STAGE;;-12.17;44.41;-12.17;44.41;;;OUTCROP;;;SUBAERIAL;VOLCANIC ROCK;BENMOREITE, NEPHELINE;;;;;;;;;;;;WHOLE ROCK;;;;;;;;;;;;;;;;;;;;;;;;;6.08;;;;1.11;;;;;;;;;;;;;;;;;;;;;;;;;;;;;;;;;;;;;;;;;;;;;;;;;;;;;;;;;;1;XRF;;;;;;;4;XRF;;;;;;;124;XRF;;;;;;;;;;;120;XRF;;;;;1073;XRF;;;;;39;XRF;;;377;XRF;;;;;;;;;;;;;;;;;;;;;1250;XRF;;;;;;;;;;;;;;;;;;;;;;;;;;;;;;;;;;;;;;;;;;;;;;;;;;;;;;;;;;;;;;;;;;;;;;;;;;;;;;;;;;;;;;;;;;;;;;;;;;;;;;;;;;;;;;;;;;;;;;;;;;;;;;;;;;;;;;;;;;;;;;;;;;;;;;;;;;
1986;[1313] NOUGIER J. (1986);samp. AN01;;COMOROS / ANJOUAN (NZWANI) / DIFFERENTIATED STAGE;SOUTH OF PATSI;-12.15;44.3;-12.15;44.3;240;240;OUTCROP;;;SUBAERIAL;VOLCANIC ROCK;BENMOREITE, NEPHELINE;;;;;;;;;;;;WHOLE ROCK;;;;;;;;;;52.5;0.9;;;;19;;;;;;;;;4.53;;4.93;;4.5;1.6;0.25;;;;;;3.3;NOT;;;7.5;;;;0.27;0.29;;;;;;;;;;;2.76;;;;;;;;;;;;;;;;;;;;0.067;;;;;;;;;;;;;;;;;;;;;;;;;;;;;;;;;;;;;;;;;;;;;;;;;;;;;;;;;;;;;;;;;;;;;;;;;;;;;;;;;;;;;;;;;;;;;;;;;;;;;;;;;;;;;;;;;;;;;;;;;;;;;;;;;;;;;;;;;;;;;;;;;;;;;;;;;;;;;;;;;;;;;;;;;;;;;;;;;;;;;;;;;;;;;;;;;;;;;;;;;;;;;;;;;;;;;;;;;;360;K-AR;;;;;;;;;;;;;
1980;[1317] CORNEN G. (1980);samp. 7;;CAMEROON LINE / ANNOBON (PAGALU);;-1.26;5.37;-1.26;5.37;;;OUTCROP;;;SUBAERIAL;VOLCANIC ROCK;BENMOREITE;;PLUG, NOT IN SITU;;;;;;;;;;WHOLE ROCK;;;;;;;;;;56.87;1.46;;;;17.35;;;;;;;;;3.94;;2.16;;4.04;1.57;;;;;;;4.97;NOT;;;5.9;0.55;;;0.65;0.24;;;;;;;;;;;;;;;;;;;;;;;;;;;;;;;;;;;;;;;;;;;;;;;;;;;;;;;;;;;;;;;;;;;;;;;;;;;;;;;;;;;;;;;;;;;;;;;;;;;;;;;;;;;;;;;;;;;;;;;;;;;;;;;;;;;;;;;;;;;;;;;;;;;;;;;;;;;;;;;;;;;;;;;;;;;;;;;;;;;;;;;;;;;;;;;;;;;;;;;;;;;;;;;;;;;;;;;;;;;;;;;;;;;;;;;;;;;;;;;;;;;;;;;;;3900;K-AR;;;;;;;;;;;;;
1980;[1317] CORNEN G. (1980);samp. 7;;CAMEROON LINE / ANNOBON (PAGALU);;-1.26;5.37;-1.26;5.37;;;OUTCROP;;;SUBAERIAL;VOLCANIC ROCK;BENMOREITE;;PLUG, NOT IN SITU;;;;;;;;;;MINERAL / COMPONENT (INCL. GROUNDMASS);AMPHIBOLE;INTERMEDIATE ZONE;PHENOCRYST;;PRIMARY;;;;;40.5;4.98;;;;12.67;0;;;;;;;;;;13.15;;11.19;11.32;0.18;;;;;;1.17;EMP (EPMA);;;2.72;;;;;;;;;;;;;;;;;;;;;;;;;;;;;;;;;;;;;;;;;;;;;;;;;;;;;;;;;;;;;;;;;;;;;;;;;;;;;;;;;;;;;;;;;;;;;;;;;;;;;;;;;;;;;;;;;;;;;;;;;;;;;;;;;;;;;;;;;;;;;;;;;;;;;;;;;;;;;;;;;;;;;;;;;;;;;;;;;;;;;;;;;;;;;;;;;;;;;;;;;;;;;;;;;;;;;;;;;;;;;;;;;;;;;;;;;;;;;;;;;;;;;;;;;;;;;;;;;;;;;;;;;;;;