Year;CITATION;SAMPLE NAME;UNIQUE_ID;LOCATION;LOCATION COMMENT;LATITUDE (MIN.);LONGITUDE (MIN.);LATITUDE (MAX.);LONGITUDE (MAX.);ELEVATION (MIN.);ELEVATION (MAX.);SAMPLING TECHNIQUE;DRILLING DEPTH (MIN.);DRILLING DEPTH (MAX.);LAND/SEA (SAMPLING);ROCK TYPE;ROCK NAME;ROCK TEXTURE;SAMPLE COMMENT;AGE (MIN.);AGE (MAX.);GEOLOGICAL AGE;GEOLOGICAL AGE PREFIX;ERUPTION DAY;ERUPTION MONTH;ERUPTION YEAR;ALTERATION;ALTERATION TYPE;TYPE OF MATERIAL;MINERAL / COMPONENT;SPOT (MINERAL);CRYSTAL;RIM / CORE (MINERAL GRAINS);PRIMARY/SECONDARY;INCLUSION TYPE;MINERAL (INCLUSION);HOSTMINERAL (INCLUSION);HEATING;SIO2(WT%);TIO2(WT%);ZRO2(WT%);HFO2(WT%);THO2(WT%);AL2O3(WT%);CR2O3(WT%);LA2O3(WT%);CE2O3(WT%);ND2O3(WT%);SM2O3(WT%);V2O3(WT%);NB2O5(WT%);FE2O3T(WT%);FE2O3(WT%);FEOT(WT%);FEO(WT%);FET(WT%);CAO(WT%);MGO(WT%);MNO(WT%);BAO(WT%);SRO(WT%);NIO(WT%);ZNO(WT%);RB2O(WT%);K2O(WT%);;;;NA2O(WT%);P2O5(WT%);AS2O5(WT%);H2O(WT%);H2OP(WT%);H2OM(WT%);CO2(WT%);C(WT%);F(WT%);CL(WT%);OH(WT%);SO3(WT%);S(WT%);LOI(WT%);TI(WT%);CA(WT%);K(WT%);LI(PPM);BE(PPM);B(PPM);F(PPM);P(PPM);S(PPM);CL(PPM);AR40(AT/G);;;;AR40(CCMSTP/G);;;;AR40(MOL/G);;;;AR40(PPB);K(PPM);SC(PPM);;;;TI(PPM);V(PPM);;;;CR(PPM);;;;CO(PPM);;;;NI(PPM);;;;CU(PPM);;;;ZN(PPM);;;;GA(PPM);;;;GE(PPM);AS(PPM);AS(PPB);SE(PPM);RB(PPM);;;;;;SR(PPM);;;;;;Y(PPM);;;;ZR(PPM);;;;NB(PPM);;;;MO(PPM);AG(PPM);CD(PPM);IN(PPM);SN(PPM);SB(PPM): altern. values or methods;;;;TE(PPM);CS(PPM): altern. values or methods;;;;BA(PPM): altern. values or methods;;;;LA(PPM): altern. values or methods;;;;CE(PPM): altern. values or methods;;;;PR(PPM);ND(PPM): altern. values or methods;;;;;;SM(PPM): altern. values or methods;;;;EU(PPM): altern. values or methods;;;;GD(PPM): altern. values or methods;;;;TB(PPM): altern. values or methods;;;;DY(PPM): altern. values or methods;;;;HO(PPM);ER(PPM): altern. values or methods;;;;TM(PPM);YB(PPM): altern. values or methods;;;;LU(PPM);HF(PPM);TA(PPM);W(PPM);RE(PPM);AU(PPM);HG(PPM);HG(PPB);TL(PPM);PB(PPM): altern. values or methods;;;;BI(PPM);PO210_ACT(DPM/G);RA226_ACT(DPM/G);TH(PPM): altern. values or methods;;;;U(PPM): altern. values or methods;;;;ND143_ND144;ND143_ND144_INI;EPSILON_ND;EPSILON_ND_INI;SM147_ND144;SR87_SR86;SR87_SR86_INI;EPSILON_SR_INI;RB87_SR86;PB206_PB204: altern. values or methods;;;;PB206_PB204_INI;PB207_PB204: altern. values or methods;;;;PB207_PB204_INI;PB207_PB206;PB208_PB204: altern. values or methods;;;;PB208_PB204_INI;PB208_PB206;HF176_HF177;LU176_HF177;AR38_AR36;AR40_AR36;AR40_AR36_INI;PB206_U238;PB207_U235;RA226_TH230_ACT;PA231_U235_ACT;TH230_TH232_ACT;TH230_U238_ACT;TH232_PB204;U234_U238_ACT;U235_PB204;U238_PB204;U238_TH232_ACT;D7LI(VS LSVEC);D13C(VS PDB);D18O(PER MIL);D18O(VS SMOW);D18O(VS VSMOW);D34S(VS VCDT);ALBITE(MOL%);ANORTHITE(MOL%);CA OLIVINE(MOL%);CHROMITE(MOL%);ENSTATITE(MOL%);FAYALITE(MOL%);FORSTERITE(MOL%);FERROSILITE(MOL%);HEMATITE(MOL%);HERCYNITE(MOL%);ILMENITE(MOL%);MAGNESIOFERRITE(MOL%);MONTICELLITE(MOL%);MAGNETITE(MOL%);ORTHOCLASE(MOL%);PICROCHROMITE(MOL%);SPINEL(MOL%);TEPHROITE(MOL%);ULVOSPINEL(MOL%);WOLLASTONITE(MOL%);AGE(KA): altern. values or methods;;;;;;AGE(MA): altern. values or methods;;;;;;AGE_PB207_U235(MA);AGE_PB206_U238(MA);
2008;[12263] MACDONALD R.(2008)  [GeoReM [4079] ];samp. SMN167;;EAST AFRICAN RIFT / KENYA RIFT (EASTERN EAST AFRICAN RIFT) / SOUTHERN KENYA RIFT / GREATER OLKARIA(NAIVASHA);;-0.72;36.43;-0.72;36.43;;;OUTCROP;;;SUBAERIAL;VOLCANIC ROCK;BENMOREITE;;LAVA;0;20000;QUATERNARY;;;;;;;WHOLE ROCK;;;;;;;;;;58.22;1.61;;;;15.22;;;;;;;;;;9.12;;;3.69;1.37;0.22;;;;;;4.14;XRF;;;4.31;0.51;;;;;;;;;;;;0.48;;;;;;;;;;;;;;;;;;;;;;;;;;;;;;;;;;;;;;;;;;;;;;;;;;;;;;;;;;;;;;94.8;XRF;;;;;200;XRF;;;;;52.9;XRF;;;297.3;XRF;;;73.3;XRF;;;;;;;;;;;;;;;;;2693;XRF;;;60.4;XRF;;;102.1;XRF;;;;41.9;XRF;;;;;;;;;;;;;;;;;;;;;;;;;;;;;;;;;;;;;;;;;;;;;;;;;;;;;;;;;;;;;;;;;;;;;;;;;;;;;;;;;;;;;;;;;;;;;;;;;;;;;;;;;;;;;;;;;;;;;;;;;;;;;;;;;;;;;;;;;;;;;
2008;[12263] MACDONALD R.(2008)  [GeoReM [4079] ];samp. BB85.40;;EAST AFRICAN RIFT / KENYA RIFT (EASTERN EAST AFRICAN RIFT) / SOUTHERN KENYA RIFT / GREATER OLKARIA(NAIVASHA);;-0.72;36.43;-0.72;36.43;;;OUTCROP;;;SUBAERIAL;VOLCANIC ROCK;BENMOREITE;;DIKE;0;20000;QUATERNARY;;;;;;;WHOLE ROCK;;;;;;;;;;58.8;1.52;;;;14.46;;;;;;;;;;9.02;;;3.4;1.07;0.16;;;;;;4.51;XRF;;;4.11;0.48;;;;;;;;;;;;2.37;;;;27;;;;;;;;;;;;;;;;;;;;;24;ICPMS;;;;63.4;ICPMS;;;1.9;ICPMS;;;11;ICPMS;;;1.1;ICPMS;;;14;ICPMS;;;215;ICPMS;;;21;ICPMS;;;;;;;179.4;XRF;;;;;195;XRF;;;;;206.1;XRF;;;214;XRF;;;53.5;XRF;;;2.3;;;;2.6;0.15;ICPMS;;;;23;ICPMS;;;3962;XRF;;;260.8;XRF;210;ICPMS;140.1;XRF;137;ICPMS;50;177.7;XRF;169;ICPMS;;;35;ICPMS;;;6;ICPMS;;;31;ICPMS;;;5.4;ICPMS;;;31;ICPMS;;;6.1;17;ICPMS;;;;18;ICPMS;;;2.5;5.6;3.4;;;;;;;7.7;ICPMS;;;;;;8.2;ICPMS;;;2.3;ICPMS;;;;;;;;;;;;;;;;;;;;;;;;;;;;;;;;;;;;;;;;;;;;;;;;;;;;;;;;;;;;;;;;;;;;;;;;;;;;;;;;;;;;;
2008;[12263] MACDONALD R.(2008)  [GeoReM [4079] ];samp. SMN165I;;EAST AFRICAN RIFT / KENYA RIFT (EASTERN EAST AFRICAN RIFT) / SOUTHERN KENYA RIFT / GREATER OLKARIA(NAIVASHA);;-0.72;36.43;-0.72;36.43;;;OUTCROP;;;SUBAERIAL;VOLCANIC ROCK;BENMOREITE;;LAVA;0;20000;QUATERNARY;;;;;;;WHOLE ROCK;;;;;;;;;;58.86;1.46;;;;15.47;;;;;;;;;;8.74;;;2.85;0.87;0.11;;;;;;4.4;XRF;;;4.63;0.47;;;;;;;;;;;;1.17;;;;;;;;;;;;;;;;;;;;;;;;;;;;;;;;;;;;;;;;;;;;;;;;;;;;;;;;;;;;;;162.8;XRF;;;;;188;XRF;;;;;95.2;XRF;;;300.2;XRF;;;70.3;XRF;;;;;;;;;;;;;;;;;3340;XRF;;;87.5;XRF;;;137.2;XRF;;;;52.6;XRF;;;;;;;;;;;;;;;;;;;;;;;;;;;;;;;;;;;;;;;;;;;;;;;;;;;;;;;;;;;;;;;;;;;;;;;;;;;;;;;;;;;;;;;;;;;;;;;;;;;;;;;;;;;;;;;;;;;;;;;;;;;;;;;;;;;;;;;;;;;;;
2008;[12263] MACDONALD R.(2008)  [GeoReM [4079] ];samp. SMN165B;;EAST AFRICAN RIFT / KENYA RIFT (EASTERN EAST AFRICAN RIFT) / SOUTHERN KENYA RIFT / GREATER OLKARIA(NAIVASHA);;-0.72;36.43;-0.72;36.43;;;OUTCROP;;;SUBAERIAL;VOLCANIC ROCK;BENMOREITE;;LAVA;0;20000;QUATERNARY;;;;;;;WHOLE ROCK;;;;;;;;;;58.75;1.21;;;;15.18;;;;;;;;;;8.58;;;2.92;0.84;0.23;;;;;;5.05;XRF;;;4.9;0.39;;;;;;;;;;;;0.47;;;;69;;;;;;;;;;;;;;;;;;;;;23;ICPMS;;;;15.1;ICPMS;;;1.7;ICPMS;;;4.8;ICPMS;;;0.4;ICPMS;;;17;ICPMS;;;101;ICPMS;;;21;ICPMS;;;;;;;134.7;XRF;;;;;127;XRF;;;;;50.6;XRF;;;219;XRF;;;54.9;XRF;;;3.4;;;;3;0.45;ICPMS;;;;13;ICPMS;;;3073;XRF;;;52.2;XRF;50;ICPMS;79.5;XRF;97;ICPMS;12;32.7;XRF;45;ICPMS;;;9.2;ICPMS;;;6.1;ICPMS;;;9.2;ICPMS;;;1.5;ICPMS;;;8.9;ICPMS;;;2;5.8;ICPMS;;;;5.5;ICPMS;;;0.84;5.7;3.4;;;;;;;9.1;ICPMS;;;;;;10;ICPMS;;;4.3;ICPMS;;;;;;;;;;;;;;;;;;;;;;;;;;;;;;;;;;;;;;;;;;;;;;;;;;;;;;;;;;;;;;;;;;;;;;;;;;;;;;;;;;;;;
2008;[12263] MACDONALD R.(2008)  [GeoReM [4079] ];samp. BB85.40;;EAST AFRICAN RIFT / KENYA RIFT (EASTERN EAST AFRICAN RIFT) / SOUTHERN KENYA RIFT / GREATER OLKARIA(NAIVASHA);;-0.72;36.43;-0.72;36.43;;;OUTCROP;;;SUBAERIAL;VOLCANIC ROCK;BENMOREITE;;DIKE;0;20000;QUATERNARY;;;;;;;MINERAL / COMPONENT (INCL. GROUNDMASS);FELDSPAR;;;CORE;PRIMARY;;;;;56.29;;;;;26.57;;;;;;;;0.78;;;;;9.49;;;0.04;0.14;;;;0.57;EMP (EPMA);;;5.63;;;;;;;;;;;;;;;;;;;;;;;;;;;;;;;;;;;;;;;;;;;;;;;;;;;;;;;;;;;;;;;;;;;;;;;;;;;;;;;;;;;;;;;;;;;;;;;;;;;;;;;;;;;;;;;;;;;;;;;;;;;;;;;;;;;;;;;;;;;;;;;;;;;;;;;;;;;;;;;;;;;;;;;;;;;;;;;;;;;;;;;;;;;;;;;;;;;;;;;;;;;;;;;;;;;;;;;;;;;;;;;;;;;;;;;;;;50;46.6;;;;;;;;;;;;;3.4;;;;;;;;;;;;;;;;;;;;
2008;[12263] MACDONALD R.(2008)  [GeoReM [4079] ];samp. BB85.40;;EAST AFRICAN RIFT / KENYA RIFT (EASTERN EAST AFRICAN RIFT) / SOUTHERN KENYA RIFT / GREATER OLKARIA(NAIVASHA);;-0.72;36.43;-0.72;36.43;;;OUTCROP;;;SUBAERIAL;VOLCANIC ROCK;BENMOREITE;;DIKE;0;20000;QUATERNARY;;;;;;;MINERAL / COMPONENT (INCL. GROUNDMASS);FELDSPAR;;;RIM;PRIMARY;;;;;55.54;;;;;27.3;;;;;;;;0.79;;;;;10.25;;;0.13;0.16;;;;0.54;EMP (EPMA);;;4.98;;;;;;;;;;;;;;;;;;;;;;;;;;;;;;;;;;;;;;;;;;;;;;;;;;;;;;;;;;;;;;;;;;;;;;;;;;;;;;;;;;;;;;;;;;;;;;;;;;;;;;;;;;;;;;;;;;;;;;;;;;;;;;;;;;;;;;;;;;;;;;;;;;;;;;;;;;;;;;;;;;;;;;;;;;;;;;;;;;;;;;;;;;;;;;;;;;;;;;;;;;;;;;;;;;;;;;;;;;;;;;;;;;;;;;;;;;45.3;51.5;;;;;;;;;;;;;3.2;;;;;;;;;;;;;;;;;;;;
2008;[12263] MACDONALD R.(2008)  [GeoReM [4079] ];samp. BB85.278;;EAST AFRICAN RIFT / KENYA RIFT (EASTERN EAST AFRICAN RIFT) / SOUTHERN KENYA RIFT / GREATER OLKARIA(NAIVASHA);;-0.72;36.43;-0.72;36.43;;;OUTCROP;;;SUBAERIAL;VOLCANIC ROCK;BENMOREITE;;LAVA;0;20000;QUATERNARY;;;;;;;MINERAL / COMPONENT (INCL. GROUNDMASS);FELDSPAR;;;CORE;PRIMARY;;;;;58.52;;;;;25.01;;;;;;;;0.34;;;;;6.56;;;0.96;;;;;1.96;EMP (EPMA);;;6.01;;;;;;;;;;;;;;;;;;;;;;;;;;;;;;;;;;;;;;;;;;;;;;;;;;;;;;;;;;;;;;;;;;;;;;;;;;;;;;;;;;;;;;;;;;;;;;;;;;;;;;;;;;;;;;;;;;;;;;;;;;;;;;;;;;;;;;;;;;;;;;;;;;;;;;;;;;;;;;;;;;;;;;;;;;;;;;;;;;;;;;;;;;;;;;;;;;;;;;;;;;;;;;;;;;;;;;;;;;;;;;;;;;;;;;;;;;55;33.3;;;;;;;;;;;;;11.8;;;;;;;;;;;;;;;;;;;;
2008;[12263] MACDONALD R.(2008)  [GeoReM [4079] ];samp. BB85.278;;EAST AFRICAN RIFT / KENYA RIFT (EASTERN EAST AFRICAN RIFT) / SOUTHERN KENYA RIFT / GREATER OLKARIA(NAIVASHA);;-0.72;36.43;-0.72;36.43;;;OUTCROP;;;SUBAERIAL;VOLCANIC ROCK;BENMOREITE;;LAVA;0;20000;QUATERNARY;;;;;;;MINERAL / COMPONENT (INCL. GROUNDMASS);FELDSPAR;;;RIM;PRIMARY;;;;;56.12;;;;;26.65;;;;;;;;0.64;;;;;9.16;;;0.27;;;;;0.54;EMP (EPMA);;;6.25;;;;;;;;;;;;;;;;;;;;;;;;;;;;;;;;;;;;;;;;;;;;;;;;;;;;;;;;;;;;;;;;;;;;;;;;;;;;;;;;;;;;;;;;;;;;;;;;;;;;;;;;;;;;;;;;;;;;;;;;;;;;;;;;;;;;;;;;;;;;;;;;;;;;;;;;;;;;;;;;;;;;;;;;;;;;;;;;;;;;;;;;;;;;;;;;;;;;;;;;;;;;;;;;;;;;;;;;;;;;;;;;;;;;;;;;;;53.6;43.4;;;;;;;;;;;;;3;;;;;;;;;;;;;;;;;;;;
2008;[12263] MACDONALD R.(2008)  [GeoReM [4079] ];samp. BB85.40;;EAST AFRICAN RIFT / KENYA RIFT (EASTERN EAST AFRICAN RIFT) / SOUTHERN KENYA RIFT / GREATER OLKARIA(NAIVASHA);;-0.72;36.43;-0.72;36.43;;;OUTCROP;;;SUBAERIAL;VOLCANIC ROCK;BENMOREITE;;DIKE;0;20000;QUATERNARY;;;;;;;MINERAL / COMPONENT (INCL. GROUNDMASS);FELDSPAR;;;CORE;PRIMARY;;;;;62.34;;;;;20.84;;;;;;;;0.2;;;;;1.54;;;2.94;0.03;;;;7.35;EMP (EPMA);;;4.65;;;;;;;;;;;;;;;;;;;;;;;;;;;;;;;;;;;;;;;;;;;;;;;;;;;;;;;;;;;;;;;;;;;;;;;;;;;;;;;;;;;;;;;;;;;;;;;;;;;;;;;;;;;;;;;;;;;;;;;;;;;;;;;;;;;;;;;;;;;;;;;;;;;;;;;;;;;;;;;;;;;;;;;;;;;;;;;;;;;;;;;;;;;;;;;;;;;;;;;;;;;;;;;;;;;;;;;;;;;;;;;;;;;;;;;;;;45;8.2;;;;;;;;;;;;;46.8;;;;;;;;;;;;;;;;;;;;
2008;[12263] MACDONALD R.(2008)  [GeoReM [4079] ];samp. BB85.40;;EAST AFRICAN RIFT / KENYA RIFT (EASTERN EAST AFRICAN RIFT) / SOUTHERN KENYA RIFT / GREATER OLKARIA(NAIVASHA);;-0.72;36.43;-0.72;36.43;;;OUTCROP;;;SUBAERIAL;VOLCANIC ROCK;BENMOREITE;;DIKE;0;20000;QUATERNARY;;;;;;;MINERAL / COMPONENT (INCL. GROUNDMASS);FELDSPAR;;DENDRITE;;PRIMARY;;;;;60.59;;;;;22.67;;;;;;;;1.51;;;;;4.07;;;1.06;0.12;;;;3.21;EMP (EPMA);;;6.1;;;;;;;;;;;;;;;;;;;;;;;;;;;;;;;;;;;;;;;;;;;;;;;;;;;;;;;;;;;;;;;;;;;;;;;;;;;;;;;;;;;;;;;;;;;;;;;;;;;;;;;;;;;;;;;;;;;;;;;;;;;;;;;;;;;;;;;;;;;;;;;;;;;;;;;;;;;;;;;;;;;;;;;;;;;;;;;;;;;;;;;;;;;;;;;;;;;;;;;;;;;;;;;;;;;;;;;;;;;;;;;;;;;;;;;;;;58.3;21.5;;;;;;;;;;;;;20.2;;;;;;;;;;;;;;;;;;;;
2008;[12263] MACDONALD R.(2008)  [GeoReM [4079] ];samp. BB85.40;;EAST AFRICAN RIFT / KENYA RIFT (EASTERN EAST AFRICAN RIFT) / SOUTHERN KENYA RIFT / GREATER OLKARIA(NAIVASHA);;-0.72;36.43;-0.72;36.43;;;OUTCROP;;;SUBAERIAL;VOLCANIC ROCK;BENMOREITE;;DIKE;0;20000;QUATERNARY;;;;;;;MINERAL / COMPONENT (INCL. GROUNDMASS);FELDSPAR;;;CORE;PRIMARY;;;;;57.97;;;;;25.35;;;;;;;;0.38;;;;;7.91;;;0.55;0.09;;;;1.57;EMP (EPMA);;;5.9;;;;;;;;;;;;;;;;;;;;;;;;;;;;;;;;;;;;;;;;;;;;;;;;;;;;;;;;;;;;;;;;;;;;;;;;;;;;;;;;;;;;;;;;;;;;;;;;;;;;;;;;;;;;;;;;;;;;;;;;;;;;;;;;;;;;;;;;;;;;;;;;;;;;;;;;;;;;;;;;;;;;;;;;;;;;;;;;;;;;;;;;;;;;;;;;;;;;;;;;;;;;;;;;;;;;;;;;;;;;;;;;;;;;;;;;;;52.2;38.9;;;;;;;;;;;;;9.1;;;;;;;;;;;;;;;;;;;;
2008;[12263] MACDONALD R.(2008)  [GeoReM [4079] ];samp. BB85.40;;EAST AFRICAN RIFT / KENYA RIFT (EASTERN EAST AFRICAN RIFT) / SOUTHERN KENYA RIFT / GREATER OLKARIA(NAIVASHA);;-0.72;36.43;-0.72;36.43;;;OUTCROP;;;SUBAERIAL;VOLCANIC ROCK;BENMOREITE;;DIKE;0;20000;QUATERNARY;;;;;;;MINERAL / COMPONENT (INCL. GROUNDMASS);FELDSPAR;;;CORE;PRIMARY;;;;;59.87;;;;;23.21;;;;;;;;0.31;;;;;5.32;;;1.03;0.09;;;;2.88;EMP (EPMA);;;6.09;;;;;;;;;;;;;;;;;;;;;;;;;;;;;;;;;;;;;;;;;;;;;;;;;;;;;;;;;;;;;;;;;;;;;;;;;;;;;;;;;;;;;;;;;;;;;;;;;;;;;;;;;;;;;;;;;;;;;;;;;;;;;;;;;;;;;;;;;;;;;;;;;;;;;;;;;;;;;;;;;;;;;;;;;;;;;;;;;;;;;;;;;;;;;;;;;;;;;;;;;;;;;;;;;;;;;;;;;;;;;;;;;;;;;;;;;;55.7;26.9;;;;;;;;;;;;;17.3;;;;;;;;;;;;;;;;;;;;
2008;[12263] MACDONALD R.(2008)  [GeoReM [4079] ];samp. BB85.40;;EAST AFRICAN RIFT / KENYA RIFT (EASTERN EAST AFRICAN RIFT) / SOUTHERN KENYA RIFT / GREATER OLKARIA(NAIVASHA);;-0.72;36.43;-0.72;36.43;;;OUTCROP;;;SUBAERIAL;VOLCANIC ROCK;BENMOREITE;;DIKE;0;20000;QUATERNARY;;;;;;;MINERAL / COMPONENT (INCL. GROUNDMASS);FELDSPAR;;;RIM;PRIMARY;;;;;60.3;;;;;22.37;;;;;;;;0.27;;;;;4.19;;;1.69;0.12;;;;3.99;EMP (EPMA);;;5.65;;;;;;;;;;;;;;;;;;;;;;;;;;;;;;;;;;;;;;;;;;;;;;;;;;;;;;;;;;;;;;;;;;;;;;;;;;;;;;;;;;;;;;;;;;;;;;;;;;;;;;;;;;;;;;;;;;;;;;;;;;;;;;;;;;;;;;;;;;;;;;;;;;;;;;;;;;;;;;;;;;;;;;;;;;;;;;;;;;;;;;;;;;;;;;;;;;;;;;;;;;;;;;;;;;;;;;;;;;;;;;;;;;;;;;;;;;53.4;21.9;;;;;;;;;;;;;24.8;;;;;;;;;;;;;;;;;;;;
2008;[12263] MACDONALD R.(2008)  [GeoReM [4079] ];samp. BB85.268;;EAST AFRICAN RIFT / KENYA RIFT (EASTERN EAST AFRICAN RIFT) / SOUTHERN KENYA RIFT / GREATER OLKARIA(NAIVASHA) / OLKARIA COMENDITE FORMATION;;-0.72;36.43;-0.72;36.43;;;OUTCROP;;;SUBAERIAL;VOLCANIC ROCK;BENMOREITE;;DIKE;0;20000;QUATERNARY;;;;;;;MINERAL / COMPONENT (INCL. GROUNDMASS);FELDSPAR;;;CORE;PRIMARY;;;;;56.83;;;;;26.06;;;;;;;;0.42;;;;;8.23;;;0.86;;;;;1.25;EMP (EPMA);;;5.29;;;;;;;;;;;;;;;;;;;;;;;;;;;;;;;;;;;;;;;;;;;;;;;;;;;;;;;;;;;;;;;;;;;;;;;;;;;;;;;;;;;;;;;;;;;;;;;;;;;;;;;;;;;;;;;;;;;;;;;;;;;;;;;;;;;;;;;;;;;;;;;;;;;;;;;;;;;;;;;;;;;;;;;;;;;;;;;;;;;;;;;;;;;;;;;;;;;;;;;;;;;;;;;;;;;;;;;;;;;;;;;;;;;;;;;;;;49.6;42.7;;;;;;;;;;;;;7.7;;;;;;;;;;;;;;;;;;;;
2008;[12263] MACDONALD R.(2008)  [GeoReM [4079] ];samp. BB85.268;;EAST AFRICAN RIFT / KENYA RIFT (EASTERN EAST AFRICAN RIFT) / SOUTHERN KENYA RIFT / GREATER OLKARIA(NAIVASHA) / OLKARIA COMENDITE FORMATION;;-0.72;36.43;-0.72;36.43;;;OUTCROP;;;SUBAERIAL;VOLCANIC ROCK;BENMOREITE;;DIKE;0;20000;QUATERNARY;;;;;;;MINERAL / COMPONENT (INCL. GROUNDMASS);FELDSPAR;;;RIM;PRIMARY;;;;;56.77;;;;;26.6;;;;;;;;0.63;;;;;9.12;;;0.28;;;;;0.74;EMP (EPMA);;;5.41;;;;;;;;;;;;;;;;;;;;;;;;;;;;;;;;;;;;;;;;;;;;;;;;;;;;;;;;;;;;;;;;;;;;;;;;;;;;;;;;;;;;;;;;;;;;;;;;;;;;;;;;;;;;;;;;;;;;;;;;;;;;;;;;;;;;;;;;;;;;;;;;;;;;;;;;;;;;;;;;;;;;;;;;;;;;;;;;;;;;;;;;;;;;;;;;;;;;;;;;;;;;;;;;;;;;;;;;;;;;;;;;;;;;;;;;;;49.5;46;;;;;;;;;;;;;4.5;;;;;;;;;;;;;;;;;;;;
2008;[12263] MACDONALD R.(2008)  [GeoReM [4079] ];samp. BB85.268;;EAST AFRICAN RIFT / KENYA RIFT (EASTERN EAST AFRICAN RIFT) / SOUTHERN KENYA RIFT / GREATER OLKARIA(NAIVASHA) / OLKARIA COMENDITE FORMATION;;-0.72;36.43;-0.72;36.43;;;OUTCROP;;;SUBAERIAL;VOLCANIC ROCK;BENMOREITE;;DIKE;0;20000;QUATERNARY;;;;;;;MINERAL / COMPONENT (INCL. GROUNDMASS);FELDSPAR;;;CORE;PRIMARY;;;;;62.3;;;;;21.52;;;;;;;;0.21;;;;;3.25;;;0.71;0.02;;;;5;EMP (EPMA);;;6.02;;;;;;;;;;;;;;;;;;;;;;;;;;;;;;;;;;;;;;;;;;;;;;;;;;;;;;;;;;;;;;;;;;;;;;;;;;;;;;;;;;;;;;;;;;;;;;;;;;;;;;;;;;;;;;;;;;;;;;;;;;;;;;;;;;;;;;;;;;;;;;;;;;;;;;;;;;;;;;;;;;;;;;;;;;;;;;;;;;;;;;;;;;;;;;;;;;;;;;;;;;;;;;;;;;;;;;;;;;;;;;;;;;;;;;;;;;54.2;16.2;;;;;;;;;;;;;29.6;;;;;;;;;;;;;;;;;;;;
2008;[12263] MACDONALD R.(2008)  [GeoReM [4079] ];samp. BB85.268;;EAST AFRICAN RIFT / KENYA RIFT (EASTERN EAST AFRICAN RIFT) / SOUTHERN KENYA RIFT / GREATER OLKARIA(NAIVASHA) / OLKARIA COMENDITE FORMATION;;-0.72;36.43;-0.72;36.43;;;OUTCROP;;;SUBAERIAL;VOLCANIC ROCK;BENMOREITE;;DIKE;0;20000;QUATERNARY;;;;;;;MINERAL / COMPONENT (INCL. GROUNDMASS);FELDSPAR;;PHENOCRYST;;PRIMARY;;;;;61.23;;;;;21.75;;;;;;;;0.27;;;;;3.84;;;1.18;;;;;4.16;EMP (EPMA);;;5.76;;;;;;;;;;;;;;;;;3.1;;;;;;;;;;;;;;;;;;;;;;;;;;;;;;;;;;;;;;;;;;;;;;;;;;27;ICPMS_LA;;;;;;;17;ICPMS_LA;;;;;922;ICPMS_LA;;;;;;;;;;;;;;;;;;;;;;;;;;;;;;;;;;;6;ICPMS_LA;;;7;ICPMS_LA;;;0.58;1.7;ICPMS_LA;;;;;0.15;ICPMS_LA;;;28;ICPMS_LA;;;0.07;ICPMS_LA;;;0.02;ICPMS_LA;;;0.05;ICPMS_LA;;;0.01;0.01;ICPMS_LA;;;;;;;;;;;;;;;;;3.2;ICPMS_LA;;;;;;;;;;;;;;;;;;;;;;;;;;;;;;;;;;;;;;;;;;;;;;;;;;;;;;;;;;;;;;54.3;20;;;;;;;;;;;;;25.8;;;;;;;;;;;;;;;;;;;;
2008;[12263] MACDONALD R.(2008)  [GeoReM [4079] ];samp. BB85.268;;EAST AFRICAN RIFT / KENYA RIFT (EASTERN EAST AFRICAN RIFT) / SOUTHERN KENYA RIFT / GREATER OLKARIA(NAIVASHA) / OLKARIA COMENDITE FORMATION;;-0.72;36.43;-0.72;36.43;;;OUTCROP;;;SUBAERIAL;VOLCANIC ROCK;BENMOREITE;;DIKE;0;20000;QUATERNARY;;;;;;;MINERAL / COMPONENT (INCL. GROUNDMASS);FELDSPAR;;PHENOCRYST;;PRIMARY;;;;;57.91;;;;;24.6;;;;;;;;0.4;;;;;7.04;;;0.99;;;;;1.68;EMP (EPMA);;;5.68;;;;;;;;;;;;;;;;;2.1;;;;;;;;;;;;;;;;;;;;;;;;;;;;;;;;;;;;;;;;;;;;;;;;;;25;ICPMS_LA;;;;;;;27;ICPMS_LA;;;;;1006;ICPMS_LA;;;;;;;;;;;;;;;;;;;;;;;;;;;0.05;ICPMS_LA;;;;;;;5.3;ICPMS_LA;;;7.9;ICPMS_LA;;;0.66;2.1;ICPMS_LA;;;;;0.36;ICPMS_LA;;;19;ICPMS_LA;;;0.33;ICPMS_LA;;;0.04;ICPMS_LA;;;0.2;ICPMS_LA;;;0.03;0.1;ICPMS_LA;;;;0.11;ICPMS_LA;;;0.02;;;;;;;;;3.1;ICPMS_LA;;;;;;;;;;;;;;;;;;;;;;;;;;;;;;;;;;;;;;;;;;;;;;;;;;;;;;;;;;;;;;53.2;36.4;;;;;;;;;;;;;10.4;;;;;;;;;;;;;;;;;;;;
2008;[12263] MACDONALD R.(2008)  [GeoReM [4079] ];samp. BB85.40;;EAST AFRICAN RIFT / KENYA RIFT (EASTERN EAST AFRICAN RIFT) / SOUTHERN KENYA RIFT / GREATER OLKARIA(NAIVASHA);;-0.72;36.43;-0.72;36.43;;;OUTCROP;;;SUBAERIAL;VOLCANIC ROCK;BENMOREITE;;DIKE;0;20000;QUATERNARY;;;;;;;MINERAL / COMPONENT (INCL. GROUNDMASS);FELDSPAR;;PHENOCRYST;;PRIMARY;;;;;60.64;;;;;22.25;;;;;;;;0.24;;;;;4.21;;;1.56;0.06;;;;3.93;EMP (EPMA);;;5.79;;;;;;;;;;;;;;;;;5.4;;;;;;;;;;;;;;;;;;;;;;;;;;;;;;;;;;;;;;;;;;;;;;;;;;28;ICPMS_LA;;;;;;;19;ICPMS_LA;;;;;771;ICPMS_LA;;;;;;;;;;;;;;;;;;;;;;;;;;;0.51;ICPMS_LA;;;19807;ICPMS_LA;;;7.3;ICPMS_LA;;;8.1;ICPMS_LA;;;0.77;2.5;ICPMS_LA;;;;;0.22;ICPMS_LA;;;23;ICPMS_LA;;;0.18;ICPMS_LA;;;0.02;ICPMS_LA;;;0.12;ICPMS_LA;;;0.04;0.09;ICPMS_LA;;;0.01;0.06;ICPMS_LA;;;0.01;;;;;;;;;2.9;ICPMS_LA;;;;;;;;;;;;;;;;;;;;;;;;;;;;;;;;;;;;;;;;;;;;;;;;;;;;;;;;;;;;;;54.1;21.7;;;;;;;;;;;;;24.2;;;;;;;;;;;;;;;;;;;;
2008;[12263] MACDONALD R.(2008)  [GeoReM [4079] ];samp. BB85.40;;EAST AFRICAN RIFT / KENYA RIFT (EASTERN EAST AFRICAN RIFT) / SOUTHERN KENYA RIFT / GREATER OLKARIA(NAIVASHA);;-0.72;36.43;-0.72;36.43;;;OUTCROP;;;SUBAERIAL;VOLCANIC ROCK;BENMOREITE;;DIKE;0;20000;QUATERNARY;;;;;;;MINERAL / COMPONENT (INCL. GROUNDMASS);FELDSPAR;;PHENOCRYST;;PRIMARY;;;;;60.21;;;;;22.52;;;;;;;;0.27;;;;;4.34;;;1.68;0.08;;;;3.74;EMP (EPMA);;;5.73;;;;;;;;;;;;;;;;;6;;;;;;;;;;;;;;;;;;;;;;;;;;;;;;;;;;;;;;;;;;;;;;;;;;27;ICPMS_LA;;;;;;;18;ICPMS_LA;;;;;744;ICPMS_LA;;;;;;;;;;;;;;;;;;;;;;;;;;;0.26;ICPMS_LA;;;20115;ICPMS_LA;;;4.8;ICPMS_LA;;;6.3;ICPMS_LA;;;0.44;1.2;ICPMS_LA;;;;;0.08;ICPMS_LA;;;20;ICPMS_LA;;;0.06;ICPMS_LA;;;0.01;ICPMS_LA;;;0.05;ICPMS_LA;;;0.01;0.03;ICPMS_LA;;;0.01;0.05;ICPMS_LA;;;0.01;;;;;;;;;3;ICPMS_LA;;;;;;;;;;;;;;;;;;;;;;;;;;;;;;;;;;;;;;;;;;;;;;;;;;;;;;;;;;;;;;54.1;22.7;;;;;;;;;;;;;23.2;;;;;;;;;;;;;;;;;;;;
2008;[12263] MACDONALD R.(2008)  [GeoReM [4079] ];samp. BB85.40;;EAST AFRICAN RIFT / KENYA RIFT (EASTERN EAST AFRICAN RIFT) / SOUTHERN KENYA RIFT / GREATER OLKARIA(NAIVASHA);;-0.72;36.43;-0.72;36.43;;;OUTCROP;;;SUBAERIAL;VOLCANIC ROCK;BENMOREITE;;DIKE;0;20000;QUATERNARY;;;;;;;MINERAL / COMPONENT (INCL. GROUNDMASS);FELDSPAR;;PHENOCRYST;;PRIMARY;;;;;58.87;;;;;23.11;;;;;;;;0.31;;;;;5.06;;;1.85;0.1;;;;3.18;EMP (EPMA);;;5.82;;;;;;;;;;;;;;;;;7.3;;;;;;;;;;;;;;;;;;;;;;;;;;;;;;;;;;;;;;;;;;;;;;;;;;36;ICPMS_LA;;;;;;;12;ICPMS_LA;;;;;1877;ICPMS_LA;;;;;;;;;;;;;;;;;;;;;;;;;;;0.21;ICPMS_LA;;;27340;ICPMS_LA;;;9.5;ICPMS_LA;;;11.4;ICPMS_LA;;;0.94;3.2;ICPMS_LA;;;;;0.33;ICPMS_LA;;;27;ICPMS_LA;;;0.27;ICPMS_LA;;;0.03;ICPMS_LA;;;0.11;ICPMS_LA;;;0.03;0.14;ICPMS_LA;;;0.02;0.27;ICPMS_LA;;;0.05;;;;;;;;;2.7;ICPMS_LA;;;;;;;;;;;;;;;;;;;;;;;;;;;;;;;;;;;;;;;;;;;;;;;;;;;;;;;;;;;;;;54.4;26.1;;;;;;;;;;;;;19.5;;;;;;;;;;;;;;;;;;;;