Year;CITATION;SAMPLE NAME;UNIQUE_ID;LOCATION;LOCATION COMMENT;LATITUDE (MIN.);LONGITUDE (MIN.);LATITUDE (MAX.);LONGITUDE (MAX.);ELEVATION (MIN.);ELEVATION (MAX.);SAMPLING TECHNIQUE;DRILLING DEPTH (MIN.);DRILLING DEPTH (MAX.);LAND/SEA (SAMPLING);ROCK TYPE;ROCK NAME;ROCK TEXTURE;SAMPLE COMMENT;AGE (MIN.);AGE (MAX.);GEOLOGICAL AGE;GEOLOGICAL AGE PREFIX;ERUPTION DAY;ERUPTION MONTH;ERUPTION YEAR;ALTERATION;ALTERATION TYPE;TYPE OF MATERIAL;MINERAL / COMPONENT;SPOT (MINERAL);CRYSTAL;RIM / CORE (MINERAL GRAINS);PRIMARY/SECONDARY;INCLUSION TYPE;MINERAL (INCLUSION);HOSTMINERAL (INCLUSION);HEATING;SIO2(WT%);TIO2(WT%);ZRO2(WT%);HFO2(WT%);THO2(WT%);AL2O3(WT%);CR2O3(WT%);LA2O3(WT%);CE2O3(WT%);ND2O3(WT%);SM2O3(WT%);V2O3(WT%);NB2O5(WT%);FE2O3T(WT%);FE2O3(WT%);FEOT(WT%);FEO(WT%);FET(WT%);CAO(WT%);MGO(WT%);MNO(WT%);BAO(WT%);SRO(WT%);NIO(WT%);ZNO(WT%);RB2O(WT%);K2O(WT%);;;;NA2O(WT%);P2O5(WT%);AS2O5(WT%);H2O(WT%);H2OP(WT%);H2OM(WT%);CO2(WT%);C(WT%);F(WT%);CL(WT%);OH(WT%);SO3(WT%);S(WT%);LOI(WT%);TI(WT%);CA(WT%);K(WT%);LI(PPM);BE(PPM);B(PPM);F(PPM);P(PPM);S(PPM);CL(PPM);AR40(AT/G);;;;AR40(CCMSTP/G);;;;AR40(MOL/G);;;;AR40(PPB);K(PPM);SC(PPM);;;;TI(PPM);V(PPM);;;;CR(PPM);;;;CO(PPM);;;;NI(PPM);;;;CU(PPM);;;;ZN(PPM);;;;GA(PPM);;;;GE(PPM);AS(PPM);AS(PPB);SE(PPM);RB(PPM);;;;;;SR(PPM);;;;;;Y(PPM);;;;ZR(PPM);;;;NB(PPM);;;;MO(PPM);AG(PPM);CD(PPM);IN(PPM);SN(PPM);SB(PPM): altern. values or methods;;;;TE(PPM);CS(PPM): altern. values or methods;;;;BA(PPM): altern. values or methods;;;;LA(PPM): altern. values or methods;;;;CE(PPM): altern. values or methods;;;;PR(PPM);ND(PPM): altern. values or methods;;;;;;SM(PPM): altern. values or methods;;;;EU(PPM): altern. values or methods;;;;GD(PPM): altern. values or methods;;;;TB(PPM): altern. values or methods;;;;DY(PPM): altern. values or methods;;;;HO(PPM);ER(PPM): altern. values or methods;;;;TM(PPM);YB(PPM): altern. values or methods;;;;LU(PPM);HF(PPM);TA(PPM);W(PPM);RE(PPM);AU(PPM);HG(PPM);HG(PPB);TL(PPM);PB(PPM): altern. values or methods;;;;BI(PPM);PO210_ACT(DPM/G);RA226_ACT(DPM/G);TH(PPM): altern. values or methods;;;;U(PPM): altern. values or methods;;;;ND143_ND144;ND143_ND144_INI;EPSILON_ND;EPSILON_ND_INI;SM147_ND144;SR87_SR86;SR87_SR86_INI;EPSILON_SR_INI;RB87_SR86;PB206_PB204: altern. values or methods;;;;PB206_PB204_INI;PB207_PB204: altern. values or methods;;;;PB207_PB204_INI;PB207_PB206;PB208_PB204: altern. values or methods;;;;PB208_PB204_INI;PB208_PB206;HF176_HF177;LU176_HF177;AR38_AR36;AR40_AR36;AR40_AR36_INI;PB206_U238;PB207_U235;RA226_TH230_ACT;PA231_U235_ACT;TH230_TH232_ACT;TH230_U238_ACT;TH232_PB204;U234_U238_ACT;U235_PB204;U238_PB204;U238_TH232_ACT;D7LI(VS LSVEC);D13C(VS PDB);D18O(PER MIL);D18O(VS SMOW);D18O(VS VSMOW);D34S(VS VCDT);ALBITE(MOL%);ANORTHITE(MOL%);CA OLIVINE(MOL%);CHROMITE(MOL%);ENSTATITE(MOL%);FAYALITE(MOL%);FORSTERITE(MOL%);FERROSILITE(MOL%);HEMATITE(MOL%);HERCYNITE(MOL%);ILMENITE(MOL%);MAGNESIOFERRITE(MOL%);MONTICELLITE(MOL%);MAGNETITE(MOL%);ORTHOCLASE(MOL%);PICROCHROMITE(MOL%);SPINEL(MOL%);TEPHROITE(MOL%);ULVOSPINEL(MOL%);WOLLASTONITE(MOL%);AGE(KA): altern. values or methods;;;;;;AGE(MA): altern. values or methods;;;;;;AGE_PB207_U235(MA);AGE_PB206_U238(MA);
1981;[706] METRICH N. (1981);samp. AZOFA18;;AZORES / FAIAL / CAREGO  GORDA / POST-SHIELD STAGE;AZORES;38.58;-28.7;38.58;-28.7;;;OUTCROP;;;SUBAERIAL;VOLCANIC ROCK;BENMOREITE;SUBAPHYRIC;;;;;;;;;;;MINERAL / COMPONENT (INCL. GROUNDMASS);OLIVINE;FA18_1;MICROPHENOCRYST;;PRIMARY;;;;;37.3;0.21;;;;0;;;;;;;;;;;27.91;;0.32;33.18;0.81;;;;;;;;;;;;;;;;;;;;;;;;;;;;;;;;;;;;;;;;;;;;;;;;;;;;;;;;;;;;;;;;;;;;;;;;;;;;;;;;;;;;;;;;;;;;;;;;;;;;;;;;;;;;;;;;;;;;;;;;;;;;;;;;;;;;;;;;;;;;;;;;;;;;;;;;;;;;;;;;;;;;;;;;;;;;;;;;;;;;;;;;;;;;;;;;;;;;;;;;;;;;;;;;;;;;;;;;;;;;;;;;;;;;;;;;;;;;;;;;;;;;;;;;;;67.3;;;;;;;;;;;;;;;;;;;;;;;;;;;;
1981;[706] METRICH N. (1981);samp. AZOFA18;;AZORES / FAIAL / CAREGO  GORDA / POST-SHIELD STAGE;AZORES;38.58;-28.7;38.58;-28.7;;;OUTCROP;;;SUBAERIAL;VOLCANIC ROCK;BENMOREITE;SUBAPHYRIC;;;;;;;;;;;MINERAL / COMPONENT (INCL. GROUNDMASS);OLIVINE;FA18_2;MICROPHENOCRYST;;PRIMARY;;;;;36.66;0.06;;;;0;;;;;;;;;;;31.26;;0.39;30.47;0.97;;;;;;;;;;;;;;;;;;;;;;;;;;;;;;;;;;;;;;;;;;;;;;;;;;;;;;;;;;;;;;;;;;;;;;;;;;;;;;;;;;;;;;;;;;;;;;;;;;;;;;;;;;;;;;;;;;;;;;;;;;;;;;;;;;;;;;;;;;;;;;;;;;;;;;;;;;;;;;;;;;;;;;;;;;;;;;;;;;;;;;;;;;;;;;;;;;;;;;;;;;;;;;;;;;;;;;;;;;;;;;;;;;;;;;;;;;;;;;;;;;;;;;;;;;62.7;;;;;;;;;;;;;;;;;;;;;;;;;;;;
1981;[706] METRICH N. (1981);samp. AZOFA18;;AZORES / FAIAL / CAREGO  GORDA / POST-SHIELD STAGE;AZORES;38.58;-28.7;38.58;-28.7;;;OUTCROP;;;SUBAERIAL;VOLCANIC ROCK;BENMOREITE;SUBAPHYRIC;;;;;;;;;;;MINERAL / COMPONENT (INCL. GROUNDMASS);OLIVINE;FA18_3;MICROCRYST;;PRIMARY;;;;;36.56;0.07;;;;0;;;;;;;;;;;30.96;;0.37;30.59;0.9;;;;;;;;;;;;;;;;;;;;;;;;;;;;;;;;;;;;;;;;;;;;;;;;;;;;;;;;;;;;;;;;;;;;;;;;;;;;;;;;;;;;;;;;;;;;;;;;;;;;;;;;;;;;;;;;;;;;;;;;;;;;;;;;;;;;;;;;;;;;;;;;;;;;;;;;;;;;;;;;;;;;;;;;;;;;;;;;;;;;;;;;;;;;;;;;;;;;;;;;;;;;;;;;;;;;;;;;;;;;;;;;;;;;;;;;;;;;;;;;;;;;;;;;;;63.1;;;;;;;;;;;;;;;;;;;;;;;;;;;;
1981;[706] METRICH N. (1981);samp. AZOFA18;;AZORES / FAIAL / CAREGO  GORDA / POST-SHIELD STAGE;AZORES;38.58;-28.7;38.58;-28.7;;;OUTCROP;;;SUBAERIAL;VOLCANIC ROCK;BENMOREITE;SUBAPHYRIC;;;;;;;;;;;MINERAL / COMPONENT (INCL. GROUNDMASS);OLIVINE;FA18_4;MICROCRYST;;PRIMARY;;;;;37;0.21;;;;0;;;;;;;;;;;31.89;;0.52;30.13;0.94;;;;;;;;;;;;;;;;;;;;;;;;;;;;;;;;;;;;;;;;;;;;;;;;;;;;;;;;;;;;;;;;;;;;;;;;;;;;;;;;;;;;;;;;;;;;;;;;;;;;;;;;;;;;;;;;;;;;;;;;;;;;;;;;;;;;;;;;;;;;;;;;;;;;;;;;;;;;;;;;;;;;;;;;;;;;;;;;;;;;;;;;;;;;;;;;;;;;;;;;;;;;;;;;;;;;;;;;;;;;;;;;;;;;;;;;;;;;;;;;;;;;;;;;;;62;;;;;;;;;;;;;;;;;;;;;;;;;;;;
1981;[706] METRICH N. (1981);samp. AZOFA18;;AZORES / FAIAL / CAREGO  GORDA / POST-SHIELD STAGE;AZORES;38.58;-28.7;38.58;-28.7;;;OUTCROP;;;SUBAERIAL;VOLCANIC ROCK;BENMOREITE;SUBAPHYRIC;;;;;;;;;;;MINERAL / COMPONENT (INCL. GROUNDMASS);CLINOPYROXENE;FA18_1C;PHENOCRYST;CORE;PRIMARY;;;;;51.43;1.24;;;;1.62;0;;;;;;;;;;9.38;;20.23;14.05;0.49;;;;;;;;;;0.55;;;;;;;;;;;;;;;;;;;;;;;;;;;;;;;;;;;;;;;;;;;;;;;;;;;;;;;;;;;;;;;;;;;;;;;;;;;;;;;;;;;;;;;;;;;;;;;;;;;;;;;;;;;;;;;;;;;;;;;;;;;;;;;;;;;;;;;;;;;;;;;;;;;;;;;;;;;;;;;;;;;;;;;;;;;;;;;;;;;;;;;;;;;;;;;;;;;;;;;;;;;;;;;;;;;;;;;;;;;;;;;;;;;;;;;;;;;;;;41.2;;;16.2;;;;;;;;;;;;42.6;;;;;;;;;;;;;;;
1981;[706] METRICH N. (1981);samp. AZOFA18;;AZORES / FAIAL / CAREGO  GORDA / POST-SHIELD STAGE;AZORES;38.58;-28.7;38.58;-28.7;;;OUTCROP;;;SUBAERIAL;VOLCANIC ROCK;BENMOREITE;SUBAPHYRIC;;;;;;;;;;;MINERAL / COMPONENT (INCL. GROUNDMASS);CLINOPYROXENE;FA18_1R;PHENOCRYST;RIM;PRIMARY;;;;;51.89;1.77;;;;1.77;0;;;;;;;;;;9.22;;19.58;13.82;0.54;;;;;;;;;;0.68;;;;;;;;;;;;;;;;;;;;;;;;;;;;;;;;;;;;;;;;;;;;;;;;;;;;;;;;;;;;;;;;;;;;;;;;;;;;;;;;;;;;;;;;;;;;;;;;;;;;;;;;;;;;;;;;;;;;;;;;;;;;;;;;;;;;;;;;;;;;;;;;;;;;;;;;;;;;;;;;;;;;;;;;;;;;;;;;;;;;;;;;;;;;;;;;;;;;;;;;;;;;;;;;;;;;;;;;;;;;;;;;;;;;;;;;;;;;;;41.4;;;16.4;;;;;;;;;;;;42.2;;;;;;;;;;;;;;;
1981;[706] METRICH N. (1981);samp. AZOFA18;;AZORES / FAIAL / CAREGO  GORDA / POST-SHIELD STAGE;AZORES;38.58;-28.7;38.58;-28.7;;;OUTCROP;;;SUBAERIAL;VOLCANIC ROCK;BENMOREITE;SUBAPHYRIC;;;;;;;;;;;MINERAL / COMPONENT (INCL. GROUNDMASS);CLINOPYROXENE;FA18_2C;MICROPHENOCRYST;CORE;PRIMARY;;;;;50.8;1.11;;;;1.71;0;;;;;;;;;;9.73;;20.03;14.18;0.51;;;;;;;;;;0.59;;;;;;;;;;;;;;;;;;;;;;;;;;;;;;;;;;;;;;;;;;;;;;;;;;;;;;;;;;;;;;;;;;;;;;;;;;;;;;;;;;;;;;;;;;;;;;;;;;;;;;;;;;;;;;;;;;;;;;;;;;;;;;;;;;;;;;;;;;;;;;;;;;;;;;;;;;;;;;;;;;;;;;;;;;;;;;;;;;;;;;;;;;;;;;;;;;;;;;;;;;;;;;;;;;;;;;;;;;;;;;;;;;;;;;;;;;;;;;41.3;;;16.8;;;;;;;;;;;;41.9;;;;;;;;;;;;;;;
1981;[706] METRICH N. (1981);samp. AZOFA18;;AZORES / FAIAL / CAREGO  GORDA / POST-SHIELD STAGE;AZORES;38.58;-28.7;38.58;-28.7;;;OUTCROP;;;SUBAERIAL;VOLCANIC ROCK;BENMOREITE;SUBAPHYRIC;;;;;;;;;;;MINERAL / COMPONENT (INCL. GROUNDMASS);CLINOPYROXENE;FA18_2R;MICROPHENOCRYST;RIM;PRIMARY;;;;;52.42;1.33;;;;1.27;0;;;;;;;;;;9.42;;19.18;14.12;0.5;;;;;;;;;;0.69;;;;;;;;;;;;;;;;;;;;;;;;;;;;;;;;;;;;;;;;;;;;;;;;;;;;;;;;;;;;;;;;;;;;;;;;;;;;;;;;;;;;;;;;;;;;;;;;;;;;;;;;;;;;;;;;;;;;;;;;;;;;;;;;;;;;;;;;;;;;;;;;;;;;;;;;;;;;;;;;;;;;;;;;;;;;;;;;;;;;;;;;;;;;;;;;;;;;;;;;;;;;;;;;;;;;;;;;;;;;;;;;;;;;;;;;;;;;;;42.2;;;16.6;;;;;;;;;;;;41.2;;;;;;;;;;;;;;;
1981;[706] METRICH N. (1981);samp. AZOFA18;;AZORES / FAIAL / CAREGO  GORDA / POST-SHIELD STAGE;AZORES;38.58;-28.7;38.58;-28.7;;;OUTCROP;;;SUBAERIAL;VOLCANIC ROCK;BENMOREITE;SUBAPHYRIC;;;;;;;;;;;MINERAL / COMPONENT (INCL. GROUNDMASS);CLINOPYROXENE;FA18_3;MICROCRYST;;PRIMARY;;;;;51.63;1.62;;;;2.99;0;;;;;;;;;;10.52;;17.82;13.98;0.39;;;;;;;;;;0.67;;;;;;;;;;;;;;;;;;;;;;;;;;;;;;;;;;;;;;;;;;;;;;;;;;;;;;;;;;;;;;;;;;;;;;;;;;;;;;;;;;;;;;;;;;;;;;;;;;;;;;;;;;;;;;;;;;;;;;;;;;;;;;;;;;;;;;;;;;;;;;;;;;;;;;;;;;;;;;;;;;;;;;;;;;;;;;;;;;;;;;;;;;;;;;;;;;;;;;;;;;;;;;;;;;;;;;;;;;;;;;;;;;;;;;;;;;;;;;42.5;;;18.6;;;;;;;;;;;;38.9;;;;;;;;;;;;;;;
1981;[706] METRICH N. (1981);samp. AZOFA18;;AZORES / FAIAL / CAREGO  GORDA / POST-SHIELD STAGE;AZORES;38.58;-28.7;38.58;-28.7;;;OUTCROP;;;SUBAERIAL;VOLCANIC ROCK;BENMOREITE;SUBAPHYRIC;;;;;;;;;;;MINERAL / COMPONENT (INCL. GROUNDMASS);CLINOPYROXENE;FA18_4;MICROCRYST;;PRIMARY;;;;;50.19;2.37;;;;5.28;0;;;;;;;;;;7.41;;20.35;14.19;0.18;;;;;;;;;;0.74;;;;;;;;;;;;;;;;;;;;;;;;;;;;;;;;;;;;;;;;;;;;;;;;;;;;;;;;;;;;;;;;;;;;;;;;;;;;;;;;;;;;;;;;;;;;;;;;;;;;;;;;;;;;;;;;;;;;;;;;;;;;;;;;;;;;;;;;;;;;;;;;;;;;;;;;;;;;;;;;;;;;;;;;;;;;;;;;;;;;;;;;;;;;;;;;;;;;;;;;;;;;;;;;;;;;;;;;;;;;;;;;;;;;;;;;;;;;;;42.9;;;12.9;;;;;;;;;;;;44.2;;;;;;;;;;;;;;;
1981;[706] METRICH N. (1981);samp. AZOFA18;;AZORES / FAIAL / CAREGO  GORDA / POST-SHIELD STAGE;AZORES;38.58;-28.7;38.58;-28.7;;;OUTCROP;;;SUBAERIAL;VOLCANIC ROCK;BENMOREITE;SUBAPHYRIC;;;;;;;;;;;MINERAL / COMPONENT (INCL. GROUNDMASS);PLAGIOCLASE;FA18_1C;PHENOCRYST;CORE;PRIMARY;;;;;52.77;;;;;29.18;;;;;;;;;0.32;;;;11.3;;;;;;;;0.25;EMP (EPMA);;;4.76;;;;;;;;;;;;;;;;;;;;;;;;;;;;;;;;;;;;;;;;;;;;;;;;;;;;;;;;;;;;;;;;;;;;;;;;;;;;;;;;;;;;;;;;;;;;;;;;;;;;;;;;;;;;;;;;;;;;;;;;;;;;;;;;;;;;;;;;;;;;;;;;;;;;;;;;;;;;;;;;;;;;;;;;;;;;;;;;;;;;;;;;;;;;;;;;;;;;;;;;;;;;;;;;;;;;;;;;;;;;;;;;;;;;;;;;;;42.61;55.91;;;;;;;;;;;;;1.48;;;;;;;;;;;;;;;;;;;;
1981;[706] METRICH N. (1981);samp. AZOFA18;;AZORES / FAIAL / CAREGO  GORDA / POST-SHIELD STAGE;AZORES;38.58;-28.7;38.58;-28.7;;;OUTCROP;;;SUBAERIAL;VOLCANIC ROCK;BENMOREITE;SUBAPHYRIC;;;;;;;;;;;MINERAL / COMPONENT (INCL. GROUNDMASS);PLAGIOCLASE;FA18_1R;PHENOCRYST;RIM;PRIMARY;;;;;53.86;;;;;28.95;;;;;;;;;0.37;;;;10.71;;;;;;;;0.3;EMP (EPMA);;;5.17;;;;;;;;;;;;;;;;;;;;;;;;;;;;;;;;;;;;;;;;;;;;;;;;;;;;;;;;;;;;;;;;;;;;;;;;;;;;;;;;;;;;;;;;;;;;;;;;;;;;;;;;;;;;;;;;;;;;;;;;;;;;;;;;;;;;;;;;;;;;;;;;;;;;;;;;;;;;;;;;;;;;;;;;;;;;;;;;;;;;;;;;;;;;;;;;;;;;;;;;;;;;;;;;;;;;;;;;;;;;;;;;;;;;;;;;;;45.8;52.45;;;;;;;;;;;;;1.75;;;;;;;;;;;;;;;;;;;;
1981;[706] METRICH N. (1981);samp. AZOFA18;;AZORES / FAIAL / CAREGO  GORDA / POST-SHIELD STAGE;AZORES;38.58;-28.7;38.58;-28.7;;;OUTCROP;;;SUBAERIAL;VOLCANIC ROCK;BENMOREITE;SUBAPHYRIC;;;;;;;;;;;MINERAL / COMPONENT (INCL. GROUNDMASS);PLAGIOCLASE;FA18_2;MICROCRYST;;PRIMARY;;;;;58.07;;;;;25.58;;;;;;;;;0.69;;;;7.36;;;;;;;;0.96;EMP (EPMA);;;6.65;;;;;;;;;;;;;;;;;;;;;;;;;;;;;;;;;;;;;;;;;;;;;;;;;;;;;;;;;;;;;;;;;;;;;;;;;;;;;;;;;;;;;;;;;;;;;;;;;;;;;;;;;;;;;;;;;;;;;;;;;;;;;;;;;;;;;;;;;;;;;;;;;;;;;;;;;;;;;;;;;;;;;;;;;;;;;;;;;;;;;;;;;;;;;;;;;;;;;;;;;;;;;;;;;;;;;;;;;;;;;;;;;;;;;;;;;;58.58;35.84;;;;;;;;;;;;;5.58;;;;;;;;;;;;;;;;;;;;
1981;[706] METRICH N. (1981);samp. AZOFA18;;AZORES / FAIAL / CAREGO  GORDA / POST-SHIELD STAGE;AZORES;38.58;-28.7;38.58;-28.7;;;OUTCROP;;;SUBAERIAL;VOLCANIC ROCK;BENMOREITE;SUBAPHYRIC;;;;;;;;;;;MINERAL / COMPONENT (INCL. GROUNDMASS);AMPHIBOLE;FA18_1;PHENOCRYST;;PRIMARY;;;;;40.67;5.38;;;;11.56;;;;;;;;;;;13.99;;10.77;11.41;0.35;;;;;;0.84;EMP (EPMA);;;2.87;;;;;;;;;;;;;;;;;;;;;;;;;;;;;;;;;;;;;;;;;;;;;;;;;;;;;;;;;;;;;;;;;;;;;;;;;;;;;;;;;;;;;;;;;;;;;;;;;;;;;;;;;;;;;;;;;;;;;;;;;;;;;;;;;;;;;;;;;;;;;;;;;;;;;;;;;;;;;;;;;;;;;;;;;;;;;;;;;;;;;;;;;;;;;;;;;;;;;;;;;;;;;;;;;;;;;;;;;;;;;;;;;;;;;;;;;;;;;;;;;;;;;;;;;;;;;;;;;;;;;;;;;;;;
1981;[706] METRICH N. (1981);samp. AZOFA18;;AZORES / FAIAL / CAREGO  GORDA / POST-SHIELD STAGE;AZORES;38.58;-28.7;38.58;-28.7;;;OUTCROP;;;SUBAERIAL;VOLCANIC ROCK;BENMOREITE;SUBAPHYRIC;;;;;;;;;;;MINERAL / COMPONENT (INCL. GROUNDMASS);AMPHIBOLE;FA18_2;PHENOCRYST;;PRIMARY;;;;;40.49;5.4;;;;11.67;;;;;;;;;;;12.95;;10.91;12.04;0.28;;;;;;0.82;EMP (EPMA);;;2.97;;;;;;;;;;;;;;;;;;;;;;;;;;;;;;;;;;;;;;;;;;;;;;;;;;;;;;;;;;;;;;;;;;;;;;;;;;;;;;;;;;;;;;;;;;;;;;;;;;;;;;;;;;;;;;;;;;;;;;;;;;;;;;;;;;;;;;;;;;;;;;;;;;;;;;;;;;;;;;;;;;;;;;;;;;;;;;;;;;;;;;;;;;;;;;;;;;;;;;;;;;;;;;;;;;;;;;;;;;;;;;;;;;;;;;;;;;;;;;;;;;;;;;;;;;;;;;;;;;;;;;;;;;;;
1981;[707] FERAUD G. (1981);samp. MA41;;AZORES / SANTA MARIA / SHIELD STAGE;DIKE, PRAIA WEST, ROAD SECTION NORTHERN PART;36.97;-25.12;36.97;-25.12;70;70;OUTCROP;;;SUBAERIAL;VOLCANIC ROCK;BENMOREITE;;;;;;;;;;;;WHOLE ROCK;;;;;;;;;;50.2;2.27;;;;19;;;;;;;;;7.04;;1.74;;8.11;2.13;0.18;;;;;;2.7;NOT;2.78;XRF;3.04;0.83;;;3.26;;0.12;;;;;;;;;;;;;;;;;;;;;;;;;;1.88E-11;MS_ID;;;;;;;;;;;;;;15;XRF;;;49;XRF;;;78;XRF;;;46;XRF;;;126;XRF;;;;;;;;;;;80;XRF;;;;;1022;XRF;;;;;38;XRF;;;349;XRF;;;81;XRF;;;;;;;;;;;;;;;;;942;XRF;;;;;;;;;;;;;;;;;;;;;;;;;;;;;;;;;;;;;;;;;;;;;;;;;;;;;;;;;;;;;;;;;;;;;;;;;;;;;;;;;;;;;;;;;;;;;;;;;;;;;;;;;;;;;;;;;;;;;;;;;;;;;;;;;;;;;;;;;;;;4800;K-AR;;;;;;;;;;;;;
1995;[709] MUNGALL J. E. (1995);samp. 89-30;;AZORES / TERCEIRA;;38.72;-27.22;38.72;-27.22;;;OUTCROP;;;SUBAERIAL;VOLCANIC ROCK;BENMOREITE;;;;;;;;;;;;WHOLE ROCK;;;;;;;;;;58.07;1.42;;;;17.44;;;;;;;;;5.43;;2.11;;4.06;1.67;0.21;;;;;;2.68;XRF;;;5.64;0.4;;;;;;;;;;;;0.36;;;;;;;;;;;;;;;;;;;;;;;;;;;;;;58;XRF;;;0;XRF;;;;;;;0;XRF;;;;;;;;;;;28;XRF;;;;;;;57;XRF;;;;;492;XRF;;;;;52;XRF;;;566;XRF;;;96;XRF;;;;;;;;;;;;;;;;;767;XRF;;;;;;;146;NOT;;;;;;;;;;;;;;;;;;;;;;;;;;;;;;;;;;;;;;;;;;;;;;;;;;;;;;;;7;NOT;;;0;XRF;;;;;;;;;;;;;;;;;;;;;;;;;;;;;;;;;;;;;;;;;;;;;;;;;;;;;;;;;;;;;;;;;;;;;;;;;;;;;;;;;;;;;
1995;[709] MUNGALL J. E. (1995);samp. 90-113;;AZORES / TERCEIRA;;38.72;-27.22;38.72;-27.22;;;OUTCROP;;;SUBAERIAL;VOLCANIC ROCK;BENMOREITE;;;;;;;;;;;;WHOLE ROCK;;;;;;;;;;59.96;1.44;;;;15.02;;;;;;;;;8.47;;;;3.29;1.33;0.25;;;;;;3.21;XRF;;;5.96;0.49;;;;;;;;;;;;0.26;;;;;;;;;;;;;;;;;;;;;;;;;;;;;;80;XRF;;;0;XRF;;;;;;;30;XRF;;;;;;;;;;;;;;;;;;;62;XRF;;;;;310;XRF;;;;;63;XRF;;;646;XRF;;;108;XRF;;;;;;;;;;;;;;;;;988;XRF;;;;;;;;;;;;;;;;;;;;;;;;;;;;;;;;;;;;;;;;;;;;;;;;;;;;;;;;;;;;;;;;14;NOT;;;0;XRF;;;;;;;;;;;;;;;;;;;;;;;;;;;;;;;;;;;;;;;;;;;;;;;;;;;;;;;;;;;;;;;;;;;;;;;;;;;;;;;;;;;;;
1982;[747] LE ROEX A. P. (1982);samp. WJ5B;14253;BOUVET / BOUVET;HIGHEST PART OF WESTWIND STRANDA;-54.43;3.4;-54.43;3.4;;;OUTCROP;;;SUBAERIAL;VOLCANIC ROCK;BENMOREITE;;;;;;;;;;;;WHOLE ROCK;;;;;;;;;;;;;;;;;;;;;;;;;;;;;;;;;;;;;;;;;;;;;;;;;;;;;;;;;;;;;;;;;;;;;;;;;;;;;;13.8;XRF;;;;;;;;;;;;;;;;;;;;;;;;;;;;;;;;;;;;56;XRF;;;;;315;XRF;;;;;59;XRF;;;638;XRF;;;95;XRF;;;;;;;;;;;;;;;;;584;XRF;;;65.7;INAA;;;106;INAA;;;;;;;;;;16;INAA;;;4.64;INAA;;;;;;;2.6;INAA;;;;;;;;;;;;;5.5;INAA;;;0.7;;;;;;;;;;;;;;;;;;;;;;;;;;;;;;;;;;;;;;;;;;;;;;;;;;;;;;;;;;;;;;;;;;;;;;;;;;;;;;;;;;;;;;;;;;;;;;;;;;;;;;;;;;
1982;[747] LE ROEX A. P. (1982);samp. WJ11B;14255;BOUVET / BOUVET;HIGHEST PART OF WESTWIND STRANDA;-54.43;3.4;-54.43;3.4;;;OUTCROP;;;SUBAERIAL;VOLCANIC ROCK;BENMOREITE;;;;;;;;;;;;WHOLE ROCK;;;;;;;;;;;;;;;;;;;;;;;;;;;;;;;;;;;;;;;;;;;;;;;;;;;;;;;;;;;;;;;;;;;;;;;;;;;;;;14;XRF;;;;;;;;;;;;;;;;;;;;;;;;;;;;;;;;;;;;58;XRF;;;;;313;XRF;;;;;61;XRF;;;637;XRF;;;94;XRF;;;;;;;;;;;;;;;;;574;XRF;;;;;;;;;;;;;;;;;;;;;;;;;;;;;;;;;;;;;;;;;;;;;;;;;;;;;;;;;;;;;;;;;;;;;;;;;;;;;;;;;;;;;;;;;;;;;;;;;;;;;;;;;;;;;;;;;;;;;;;;;;;;;;;;;;;;;;;;;;;;;;;;;;;;;;;;;;
1982;[747] LE ROEX A. P. (1982);samp. N420A;;BOUVET / BOUVET;HIGHEST PART OF WESTWIND STRANDA;-54.43;3.4;-54.43;3.4;;;OUTCROP;;;SUBAERIAL;VOLCANIC ROCK;BENMOREITE;;;;;;;;;;;;WHOLE ROCK;;;;;;;;;;;;;;;;;;;;;;;;;;;;;;;;;;;;;;;;;;;;;;;;;;;;;;;;;;;;;;;;;;;;;;;;;;;;;;13.7;XRF;;;;;;;;;;;;;;;;;;;;;;;;;;;;;;;;;;;;61;XRF;;;;;313;XRF;;;;;62;XRF;;;690;XRF;;;98;XRF;;;;;;;;;;;;;;;;;577;XRF;;;;;;;;;;;;;;;;;;;;;;;;;;;;;;;;;;;;;;;;;;;;;;;;;;;;;;;;;;;;;;;;;;;;;;;;;;;;;;;;;;;;;;;;;;;;;;;;;;;;;;;;;;;;;;;;;;;;;;;;;;;;;;;;;;;;;;;;;;;;;;;;;;;;;;;;;;
1982;[747] LE ROEX A. P. (1982);samp. N421A;;BOUVET / BOUVET;HIGHEST PART OF WESTWIND STRANDA;-54.43;3.4;-54.43;3.4;;;OUTCROP;;;SUBAERIAL;VOLCANIC ROCK;BENMOREITE;;;;;;;;;;;;WHOLE ROCK;;;;;;;;;;;;;;;;;;;;;;;;;;;;;;;;;;;;;;;;;;;;;;;;;;;;;;;;;;;;;;;;;;;;;;;;;;;;;;14.2;XRF;;;;;;;;;;;;;;;;;;;;;;;;;;;;;;;;;;;;58;XRF;;;;;321;XRF;;;;;61;XRF;;;676;XRF;;;95;XRF;;;;;;;;;;;;;;;;;575;XRF;;;;;;;;;;;;;;;;;;;;;;;;;;;;;;;;;;;;;;;;;;;;;;;;;;;;;;;;;;;;;;;;;;;;;;;;;;;;;;;;;;;;;;;;;;;;;;;;;;;;;;;;;;;;;;;;;;;;;;;;;;;;;;;;;;;;;;;;;;;;;;;;;;;;;;;;;;
1974;[752] VERWOERD W. J. (1974);samp. WJ5B;14253;BOUVET / BOUVET;HIGHEST PART OF WESTWIND STRANDA;-54.43;3.4;-54.43;3.4;;;OUTCROP;;;SUBAERIAL;VOLCANIC ROCK;BENMOREITE;PORPHYRITIC;HUGE BLOCK;;;;;;;;;;WHOLE ROCK;;;;;;;;;;60.59;1.1;;;;15.65;;;;;;;;;1.63;;7.29;;4.32;0.99;0.28;;;;;;2.98;NOT;;;4.42;0.32;;;0.3;0.05;;;;;;;;;;;;;;;;;;;;;;;;;;;;;;;;;;;;;;9;XRF;;;6;XRF;;;;;;;4;XRF;;;;;;;;;;;28;XRF;;;;;;;59;XRF;;;;;321;XRF;;;;;59;XRF;;;670;XRF;;;96;XRF;;;;;;;;;;;;;;;;;593;XRF;;;;;;;;;;;;;;;;;;;;;;;;;;;;;;;;;;;;;;;;;;;;;;;;;;;;;;;;;;;;;;;;8.6;GAMMA;;;2;GAMMA;;;;;;;;;;;;;;;;;;;;;;;;;;;;;;;;;;;;;;;;;;;;;;;;;;;;;;;;;;;;;;;;;;;;;;;;;;;;;;;;;;;;;
1974;[752] VERWOERD W. J. (1974);samp. N420A;;BOUVET / BOUVET;HIGHEST PART OF WESTWIND STRANDA;-54.43;3.4;-54.43;3.4;;;OUTCROP;;;SUBAERIAL;VOLCANIC ROCK;BENMOREITE;GLASSY, VITROPHYRIC;LOOSE BLOCK;;;;;;;;;;WHOLE ROCK;;;;;;;;;;60.24;1.2;;;;14.69;;;;;;;;;1.71;;8.03;;3.91;1.08;0.33;;;;;;2.93;NOT;;;4.73;0.39;;;0.19;0.2;;;;;;;;;;;;;;;;;;;;;;;;;;;;;;;;;;;;;;10;XRF;;;14;XRF;;;;;;;;;;;;;;;;;;;28;XRF;;;;;;;61;XRF;;;;;313;XRF;;;;;62;XRF;;;690;XRF;;;98;XRF;;;;;;;;;;;;;;;;;597;XRF;;;;;;;;;;;;;;;;;;;;;;;;;;;;;;;;;;;;;;;;;;;;;;;;;;;;;;;;;;;;;;;;8.8;GAMMA;;;2.4;GAMMA;;;;;;;;;;;;;;;;;;;;;;;;;;;;;;;;;;;;;;;;;;;;;;;;;;;;;;;;;;;;;;;;;;;;;;;;;;;;;;;;;;;;;
1974;[752] VERWOERD W. J. (1974);samp. WJ11B;14255;BOUVET / BOUVET;HIGHEST PART OF WESTWIND STRANDA;-54.43;3.4;-54.43;3.4;;;OUTCROP;;;SUBAERIAL;VOLCANIC ROCK;BENMOREITE;GLASSY;BLOCK;;;;;;;;;;WHOLE ROCK;;;;;;;;;;59.72;1.14;;;;14.59;;;;;;;;;2.83;;6.3;;3.91;1.13;0.24;;;;;;2.88;XRF;;;4.85;0.37;;;;0.04;;;;;;;;0.58;;;;;;;;;;;;;;;;;;;;;;;;;;;;;;11;XRF;;;4;XRF;;;;;;;5;XRF;;;;;;;;;;;28;XRF;;;;;;;59;XRF;;;;;319;XRF;;;;;59;XRF;;;678;XRF;;;96;XRF;;;;;;;;;;;;;;;;;594;XRF;;;;;;;;;;;;;;;;;;;;;;;;;;;;;;;;;;;;;;;;;;;;;;;;;;;;;;;;;;;;;;;;7.9;GAMMA;;;2.2;GAMMA;;;;;;;;;;;;;;;;;;;;;;;;;;;;;;;;;;;;;;;;;;;;;;;;;;;;;;;;;;;;;;;;;;;;;;;;;;;;;;;;;;;;;
1974;[752] VERWOERD W. J. (1974);samp. N421A;;BOUVET / BOUVET;HIGHEST PART OF WESTWIND STRANDA;-54.43;3.4;-54.43;3.4;;;OUTCROP;;;SUBAERIAL;VOLCANIC ROCK;BENMOREITE;PORPHYRITIC;HUGE BLOCK;;;;;;;;;;WHOLE ROCK;;;;;;;;;;60.17;1.34;;;;14.72;;;;;;;;;6.49;;3.18;;3.61;0.88;0.27;;;;;;2.9;NOT;;;4.76;0.37;;;0.87;0.84;;;;;;;;;;;;;;;;;;;;;;;;;;;;;;;;;;;;;;11;XRF;;;6;XRF;;;;;;;5;XRF;;;;;;;;;;;29;XRF;;;;;;;58;XRF;;;;;321;XRF;;;;;61;XRF;;;676;XRF;;;95;XRF;;;;;;;;;;;;;;;;;591;XRF;;;;;;;;;;;;;;;;;;;;;;;;;;;;;;;;;;;;;;;;;;;;;;;;;;;;;;;;;;;;;;;;;;;;;;;;;;;;;;;;;;;;;;;;;;;;;;;;;;;;;;;;;;;;;;;;;;;;;;;;;;;;;;;;;;;;;;;;;;;;;;;;;;;;;;;;;;
1974;[752] VERWOERD W. J. (1974);samp. WJ10B;14257;BOUVET / BOUVET;WESTWIND STRANDA;-54.43;3.4;-54.43;3.4;;;OUTCROP;;;SUBAERIAL;VOLCANIC ROCK;BENMOREITE;DENSE WITH SMALL PHENOCRYSTS;LOOSE BLOCK;;;;;;;;;;WHOLE ROCK;;;;;;;;;;59.12;1.09;;;;14.26;;;;;;;;;3.32;;5.41;;3.79;1;0.24;;;;;;3.06;XRF;;;4.62;0.35;;;;0.25;;;;;;;;1.67;;;;;;;;;;;;;;;;;;;;;;;;;;;;;;9;XRF;;;3;XRF;;;;;;;3;XRF;;;;;;;;;;;27;XRF;;;;;;;62;XRF;;;;;308;XRF;;;;;67;XRF;;;671;XRF;;;91;XRF;;;;;;;;;;;;;;;;;589;XRF;;;;;;;;;;;;;;;;;;;;;;;;;;;;;;;;;;;;;;;;;;;;;;;;;;;;;;;;;;;;;;;;7.8;GAMMA;;;2.1;GAMMA;;;;;;;;;;;;;;;;;;;;;;;;;;;;;;;;;;;;;;;;;;;;;;;;;;;;;;;;;;;;;;;;;;;;;;;;;;;;;;;;;;;;;