Year;CITATION;SAMPLE NAME;UNIQUE_ID;LOCATION;LOCATION COMMENT;LATITUDE (MIN.);LONGITUDE (MIN.);LATITUDE (MAX.);LONGITUDE (MAX.);ELEVATION (MIN.);ELEVATION (MAX.);SAMPLING TECHNIQUE;DRILLING DEPTH (MIN.);DRILLING DEPTH (MAX.);LAND/SEA (SAMPLING);ROCK TYPE;ROCK NAME;ROCK TEXTURE;SAMPLE COMMENT;AGE (MIN.);AGE (MAX.);GEOLOGICAL AGE;GEOLOGICAL AGE PREFIX;ERUPTION DAY;ERUPTION MONTH;ERUPTION YEAR;ALTERATION;ALTERATION TYPE;TYPE OF MATERIAL;MINERAL / COMPONENT;SPOT (MINERAL);CRYSTAL;RIM / CORE (MINERAL GRAINS);PRIMARY/SECONDARY;INCLUSION TYPE;MINERAL (INCLUSION);HOSTMINERAL (INCLUSION);HEATING;SIO2(WT%);TIO2(WT%);ZRO2(WT%);HFO2(WT%);THO2(WT%);AL2O3(WT%);CR2O3(WT%);LA2O3(WT%);CE2O3(WT%);ND2O3(WT%);SM2O3(WT%);V2O3(WT%);NB2O5(WT%);FE2O3T(WT%);FE2O3(WT%);FEOT(WT%);FEO(WT%);FET(WT%);CAO(WT%);MGO(WT%);MNO(WT%);BAO(WT%);SRO(WT%);NIO(WT%);ZNO(WT%);RB2O(WT%);K2O(WT%);;;;NA2O(WT%);P2O5(WT%);AS2O5(WT%);H2O(WT%);H2OP(WT%);H2OM(WT%);CO2(WT%);C(WT%);F(WT%);CL(WT%);OH(WT%);SO3(WT%);S(WT%);LOI(WT%);TI(WT%);CA(WT%);K(WT%);LI(PPM);BE(PPM);B(PPM);F(PPM);P(PPM);S(PPM);CL(PPM);AR40(AT/G);;;;AR40(CCMSTP/G);;;;AR40(MOL/G);;;;AR40(PPB);K(PPM);SC(PPM);;;;TI(PPM);V(PPM);;;;CR(PPM);;;;CO(PPM);;;;NI(PPM);;;;CU(PPM);;;;ZN(PPM);;;;GA(PPM);;;;GE(PPM);AS(PPM);AS(PPB);SE(PPM);RB(PPM);;;;;;SR(PPM);;;;;;Y(PPM);;;;ZR(PPM);;;;NB(PPM);;;;MO(PPM);AG(PPM);CD(PPM);IN(PPM);SN(PPM);SB(PPM): altern. values or methods;;;;TE(PPM);CS(PPM): altern. values or methods;;;;BA(PPM): altern. values or methods;;;;LA(PPM): altern. values or methods;;;;CE(PPM): altern. values or methods;;;;PR(PPM);ND(PPM): altern. values or methods;;;;;;SM(PPM): altern. values or methods;;;;EU(PPM): altern. values or methods;;;;GD(PPM): altern. values or methods;;;;TB(PPM): altern. values or methods;;;;DY(PPM): altern. values or methods;;;;HO(PPM);ER(PPM): altern. values or methods;;;;TM(PPM);YB(PPM): altern. values or methods;;;;LU(PPM);HF(PPM);TA(PPM);W(PPM);RE(PPM);AU(PPM);HG(PPM);HG(PPB);TL(PPM);PB(PPM): altern. values or methods;;;;BI(PPM);PO210_ACT(DPM/G);RA226_ACT(DPM/G);TH(PPM): altern. values or methods;;;;U(PPM): altern. values or methods;;;;ND143_ND144;ND143_ND144_INI;EPSILON_ND;EPSILON_ND_INI;SM147_ND144;SR87_SR86;SR87_SR86_INI;EPSILON_SR_INI;RB87_SR86;PB206_PB204: altern. values or methods;;;;PB206_PB204_INI;PB207_PB204: altern. values or methods;;;;PB207_PB204_INI;PB207_PB206;PB208_PB204: altern. values or methods;;;;PB208_PB204_INI;PB208_PB206;HF176_HF177;LU176_HF177;AR38_AR36;AR40_AR36;AR40_AR36_INI;PB206_U238;PB207_U235;RA226_TH230_ACT;PA231_U235_ACT;TH230_TH232_ACT;TH230_U238_ACT;TH232_PB204;U234_U238_ACT;U235_PB204;U238_PB204;U238_TH232_ACT;D7LI(VS LSVEC);D13C(VS PDB);D18O(PER MIL);D18O(VS SMOW);D18O(VS VSMOW);D34S(VS VCDT);ALBITE(MOL%);ANORTHITE(MOL%);CA OLIVINE(MOL%);CHROMITE(MOL%);ENSTATITE(MOL%);FAYALITE(MOL%);FORSTERITE(MOL%);FERROSILITE(MOL%);HEMATITE(MOL%);HERCYNITE(MOL%);ILMENITE(MOL%);MAGNESIOFERRITE(MOL%);MONTICELLITE(MOL%);MAGNETITE(MOL%);ORTHOCLASE(MOL%);PICROCHROMITE(MOL%);SPINEL(MOL%);TEPHROITE(MOL%);ULVOSPINEL(MOL%);WOLLASTONITE(MOL%);AGE(KA): altern. values or methods;;;;;;AGE(MA): altern. values or methods;;;;;;AGE_PB207_U235(MA);AGE_PB206_U238(MA);
1986;[6703] GAMBLE J. A. (1986);samp. OU36179;;NEW ZEALAND / SOUTH ISLAND / CAMPBELL ISLAND / MOUNT DUMAS;;-52.5;169.17;-52.5;169.17;;;OUTCROP;;;SUBAERIAL;VOLCANIC ROCK;BENMOREITE;;;;;;;;;;;;WHOLE ROCK;;;;;;;;;;60.42;1.03;;;;16.25;;;;;;;;;1.27;;6.35;;3.4;1.79;0.17;;;;;;3.99;XRF;;;5.06;0.28;;;;;;;;;;;;0.7;;;;;;;;;;;;;;;;;;;;;;;;;;;;;;43;XRF;;;;;;;;;;;19;XRF;;;;;;;;;;;;;;;;;;;75;XRF;;;;;196;XRF;;;;;58;XRF;;;899;XRF;;;109;XRF;;;;;;;;;;;;;;;;;853;XRF;;;91;XRF;;;170;XRF;;;;;;;;;;;;;;;;;;;;;;;;;;;;;;;;;;;;;;;;;;;;;;;;;;;;;;;;7;XRF;;;;;;;;;;;;;;;;;;;;;;;;;;;;;;;;;;;;;;;;;;;;;;;;;;;;;;;;;;;;;;;;;;;;;;;;;;;;;;;;;;;;;;;;;
2004;[7187] RYAN J. G. (2004);samp. 2-61.23;126815;ROSS ISLAND / ROSS ISLAND / MOUNT EREBUS;DRY VALLEY DRILLING PROJECT 2, HUT POINT PENINSULA, SSW FROM MOUNT EREBUS, MCMURDO VOLCANIC GROUP;-77.84;167.15;-77.84;167.15;;;DRILL HOLE ;;;SUBAERIAL;VOLCANIC ROCK;BENMOREITE, NEPHELINE;;;;;;;;;;FRESH;;WHOLE ROCK;;;;;;;;;;;;;;;;;;;;;;;;;;;;;;;;;;;;;;;;;;;;;;;;;;;;;;;;;14.5;7.63;;;;;;;;;;;;;;;;;;;;;;;;;;;;;;;;;;;;;;;;;;;;;;;;;;;;;;;;;;;;;;;;;;;;;;;;;;;;;;;;;;;;;;;;;;;;;;;;;;;;;;;;;;;;;;;;;;;;;;;;;;;;;;;;;;;;;;;;;;;;;;;;;;;;;;;;;;;;;;;;;;;;;;;;;;;;;;;;;;;;;;;;;;;;;;;;;;;;;;;;;;;;;;;;;;4.9;;;;;;;;;;;;;;;;;;;;;;;;;;;;;;;;;;;;;;;;
2004;[7187] RYAN J. G. (2004);samp. 2-134.03;;ROSS ISLAND / ROSS ISLAND / MOUNT EREBUS;DRY VALLEY DRILLING PROJECT 2, HUT POINT PENINSULA, SSW FROM MOUNT EREBUS, MCMURDO VOLCANIC GROUP;-77.84;167.15;-77.84;167.15;;;DRILL HOLE ;;;SUBAERIAL;VOLCANIC ROCK;BENMOREITE;;;;;;;;;;SLIGHTLY ALTERED;OXIDATION OF PHENOCRYSTS;WHOLE ROCK;;;;;;;;;;;;;;;;;;;;;;;;;;;;;;;;;;;;;;;;;;;;;;;;;;;;;;;;;14.9;6.84;;;;;;;;;;;;;;;;;;;;;;;;;;;;;;;;;;;;;;;;;;;;;;;;;;;;;;;;;;;;;;;;;;;;;;;;;;;;;;;;;;;;;;;;;;;;;;;;;;;;;;;;;;;;;;;;;;;;;;;;;;;;;;;;;;;;;;;;;;;;;;;;;;;;;;;;;;;;;;;;;;;;;;;;;;;;;;;;;;;;;;;;;;;;;;;;;;;;;;;;;;;;;;;;;;6.2;;;;;;;;;;;;;;;;;;;;;;;;;;;;;;;;;;;;;;;;
2004;[7187] RYAN J. G. (2004);samp. 83412;126826;ROSS ISLAND / ROSS ISLAND / MOUNT EREBUS / EREBUS HIGH IRON SERIES;;-77.53;167.17;-77.53;167.17;;;OUTCROP;;;SUBAERIAL;VOLCANIC ROCK;BENMOREITE;;;;;;;;;;SLIGHTLY ALTERED;OXIDATION OF PHENOCRYSTS;WHOLE ROCK;;;;;;;;;;;;;;;;;;;;;;;;;;;;;;;;;;;;;;;;;;;;;;;;;;;;;;;;;13.4;4.81;;;;;;;;;;;;;;;;;;;;;;;;;;;;;;;;;;;;;;;;;;;;;;;;;;;;;;;;;;;;;;;;;;;;;;;;;;;;;;;;;;;;;;;;;;;;;;;;;;;;;;;;;;;;;;;;;;;;;;;;;;;;;;;;;;;;;;;;;;;;;;;;;;;;;;;;;;;;;;;;;;;;;;;;;;;;;;;;;;;;;;;;;;;;;;;;;;;;;;;;;;;;;;;;;;3.9;;;;;;;;;;;;;;;;;;;;;;;;;;;;;;;;;;;;;;;;
2004;[7187] RYAN J. G. (2004);samp. 83410;126827;ROSS ISLAND / ROSS ISLAND / MOUNT EREBUS / EREBUS HIGH IRON SERIES;;-77.53;167.17;-77.53;167.17;;;OUTCROP;;;SUBAERIAL;VOLCANIC ROCK;BENMOREITE, NEPHELINE;;;;;;;;;;SLIGHTLY ALTERED;OXIDATION OF PHENOCRYSTS;WHOLE ROCK;;;;;;;;;;;;;;;;;;;;;;;;;;;;;;;;;;;;;;;;;;;;;;;;;;;;;;;;;12.1;5.29;;;;;;;;;;;;;;;;;;;;;;;;;;;;;;;;;;;;;;;;;;;;;;;;;;;;;;;;;;;;;;;;;;;;;;;;;;;;;;;;;;;;;;;;;;;;;;;;;;;;;;;;;;;;;;;;;;;;;;;;;;;;;;;;;;;;;;;;;;;;;;;;;;;;;;;;;;;;;;;;;;;;;;;;;;;;;;;;;;;;;;;;;;;;;;;;;;;;;;;;;;;;;;;;;;4.9;;;;;;;;;;;;;;;;;;;;;;;;;;;;;;;;;;;;;;;;
2004;[7187] RYAN J. G. (2004);samp. AW82023;126828;ROSS ISLAND / ROSS ISLAND / MOUNT EREBUS / EREBUS HIGH IRON SERIES;;-77.53;167.17;-77.53;167.17;;;OUTCROP;;;SUBAERIAL;VOLCANIC ROCK;BENMOREITE;;;;;;;;;;SLIGHTLY ALTERED;OXIDATION OF PHENOCRYSTS;WHOLE ROCK;;;;;;;;;;;;;;;;;;;;;;;;;;;;;;;;;;;;;;;;;;;;;;;;;;;;;;;;;12.5;4.61;;;;;;;;;;;;;;;;;;;;;;;;;;;;;;;;;;;;;;;;;;;;;;;;;;;;;;;;;;;;;;;;;;;;;;;;;;;;;;;;;;;;;;;;;;;;;;;;;;;;;;;;;;;;;;;;;;;;;;;;;;;;;;;;;;;;;;;;;;;;;;;;;;;;;;;;;;;;;;;;;;;;;;;;;;;;;;;;;;;;;;;;;;;;;;;;;;;;;;;;;;;;;;;;;;6.2;;;;;;;;;;;;;;;;;;;;;;;;;;;;;;;;;;;;;;;;
2005;[7516] LEGENDRE C.(2005)  [GeoReM [1749] ];samp. NK96;;MARQUESAS / NUKU HIVA / TAIOHAE / INNER VOLCANO;;-8.93;-140;-8.93;-140;;;OUTCROP;;;SUBAERIAL;VOLCANIC ROCK;BENMOREITE;;;;;;;;;;;;WHOLE ROCK;;;;;;;;;;55.4;1.26;;;;17.15;;;;;;;;5.5;;;;;4.8;2.04;0.22;;;;;;5.14;ICPAES;;;5.05;0.4;;;;;;;;;;;;3.18;;;;;;;;;;;;;;;;;;;;;;;;;5.2;ICPAES;;;;70;ICPAES;;;42;ICPAES;;;13;ICPAES;;;17;ICPAES;;;;;;;;;;;;;;;;;;;106;ICPAES;;;;;584;ICPAES;;;;;28;ICPAES;;;554;ICPAES;;;87;ICPAES;;;;;;;;;;;;;;;;;975;ICPAES;;;77;ICPAES;;;142;ICPAES;;;;49;ICPAES;;;;;8.1;ICPAES;;;2.25;ICPAES;;;6;ICPAES;;;;;;;4.7;ICPAES;;;;2.6;ICPAES;;;;2.5;ICPAES;;;;;;;;;;;;;;;;;;;16.2;ICPAES;;;;;;;0.512752;;;;;0.705024;;;;19.091;MC_ICPMS;;;;15.587;MC_ICPMS;;;;;39.186;MC_ICPMS;;;;;;;;;;;;;;;;;;;;;;;;;;;;;;;;;;;;;;;;;;;;;;;;;;;;;;;;;;;;;
2005;[7516] LEGENDRE C.(2005)  [GeoReM [1749] ];samp. NK126;;MARQUESAS / NUKU HIVA / TAIOHAE / INNER VOLCANO;;-8.93;-140;-8.93;-140;;;OUTCROP;;;SUBAERIAL;VOLCANIC ROCK;BENMOREITE;;;;;;;;;;;;WHOLE ROCK;;;;;;;;;;54.75;1.49;;;;17.3;;;;;;;;6.26;;;;;5.9;2.5;0.15;;;;;;4.44;ICPAES;;;4.9;0.45;;;;;;;;;;;;1.83;;;;;;;;;;;;;;;;;;;;;;;;;7.5;ICPAES;;;;100;ICPAES;;;68;ICPAES;;;15;ICPAES;;;28;ICPAES;;;;;;;;;;;;;;;;;;;58;ICPAES;;;;;625;ICPAES;;;;;27.5;ICPAES;;;520;ICPAES;;;79;ICPAES;;;;;;;;;;;;;;;;;935;ICPAES;;;72.5;ICPAES;;;134;ICPAES;;;;48;ICPAES;;;;;7.9;ICPAES;;;2.4;ICPAES;;;5.9;ICPAES;;;;;;;4.7;ICPAES;;;;2.6;ICPAES;;;;2.31;ICPAES;;;;;;;;;;;;;;;;;;;14.4;ICPAES;;;;;;;;;;;;;;;;;;;;;;;;;;;;;;;;;;;;;;;;;;;;;;;;;;;;;;;;;;;;;;;;;;;;;;;;;;;;;;;;;;;;;;;;;
2005;[7516] LEGENDRE C.(2005)  [GeoReM [1749] ];samp. NK174;;MARQUESAS / NUKU HIVA / TAIOHAE / INNER VOLCANO;;-8.93;-140;-8.93;-140;;;OUTCROP;;;SUBAERIAL;VOLCANIC ROCK;BENMOREITE;;;;;;;;;;;;WHOLE ROCK;;;;;;;;;;57.9;1.05;;;;19;;;;;;;;5.3;;;;;2.18;0.73;0.13;;;;;;5.68;ICPAES;;;5.58;0.32;;;;;;;;;;;;1.38;;;;;;;;;;;;;;;;;;;;;;;;;2.2;ICPAES;;;;28;ICPAES;;;8;ICPAES;;;6;ICPAES;;;4;ICPAES;;;;;;;;;;;;;;;;;;;153;ICPAES;;;;;595;ICPAES;;;;;25.5;ICPAES;;;600;ICPAES;;;90;ICPAES;;;;;;;;;;;;;;;;;910;ICPAES;;;80;ICPAES;;;144;ICPAES;;;;53;ICPAES;;;;;8.2;ICPAES;;;2.21;ICPAES;;;6.3;ICPAES;;;;;;;4.6;ICPAES;;;;2.7;ICPAES;;;;2.46;ICPAES;;;;;;;;;;;;;;;;;;;18.6;ICPAES;;;;;;;;;;;;;;;;;;;;;;;;;;;;;;;;;;;;;;;;;;;;;;;;;;;;;;;;;;;;;;;;;;;;;;;;;;;;;;;;;;;;;;;;;
2005;[7516] LEGENDRE C.(2005)  [GeoReM [1749] ];samp. NK202;;MARQUESAS / NUKU HIVA / TAIOHAE / INNER VOLCANO;;-8.93;-140;-8.93;-140;;;OUTCROP;;;SUBAERIAL;VOLCANIC ROCK;BENMOREITE;;;;;;;;;;;;WHOLE ROCK;;;;;;;;;;58.45;1.2;;;;17.8;;;;;;;;5.54;;;;;3.51;1.46;0.19;;;;;;5.4;ICPAES;;;5.42;0.41;;;;;;;;;;;;0.71;;;;;;;;;;;;;;;;;;;;;;;;;3;ICPAES;;;;47;ICPAES;;;6;ICPAES;;;6;ICPAES;;;4;ICPAES;;;;;;;;;;;;;;;;;;;157.5;ICPAES;;;;;580;ICPAES;;;;;34;ICPAES;;;614;ICPAES;;;105;ICPAES;;;;;;;;;;;;;;;;;1075;ICPAES;;;91;ICPAES;;;169;ICPAES;;;;62;ICPAES;;;;;10.2;ICPAES;;;2.63;ICPAES;;;7.6;ICPAES;;;;;;;6;ICPAES;;;;3.25;ICPAES;;;;3.16;ICPAES;;;;;;;;;;;;;;;;;;;18.2;ICPAES;;;;;;;;;;;;;;;;;;;;;;;;;;;;;;;;;;;;;;;;;;;;;;;;;;;;;;;;;;;;;;;;;;;;;;;;;;;;;;;;;;;;;;;;;
2005;[7517] XU GUANGPING(2005)  [GeoReM [504] ];samp. M4.9+300D;;HAWAIIAN ISLANDS / MOLOKAI / EAST MOLOKAI / POST-SHIELD STAGE / KALAUPAPA BASALT;WATER TUNNEL;21.18;-157.24;21.18;-157.24;;;OUTCROP;;;SUBAERIAL;VOLCANIC ROCK;BENMOREITE;;DIKE;;;;;;;;;;WHOLE ROCK;;;;;;;;;;55.4;1.56;;;;17.5;;;;;;;;;3.01;;4.9;;4.69;2.33;0.23;;;;;;2.39;XRF;;;5.99;0.85;;;0.25;0.23;0.17;;;;;;;0.24;;;;;;;;;;;;;;;;;;;;;;;;;4.18;ICPMS;4.1;INAA;;;;;;6.1;INAA;;;8;INAA;;;;;;;;;;;;;;;;;;;;;;;48.7;ICPMS;;;;;1251;ICPMS;;;;;46.4;ICPMS;;;546;ICPMS;;;85.2;ICPMS;;;;;;;;;;;;;;;;;784;ICPMS;;;67.1;ICPMS;;;146;ICPMS;;;18.2;72.5;ICPMS;;;;;14.2;ICPMS;;;4.31;ICPMS;;;11.55;ICPMS;;;1.66;ICPMS;;;8.56;ICPMS;;;1.54;3.84;ICPMS;;;0.537;3.12;ICPMS;;;0.43;11.44;4.88;;;;;;;4.66;ICPMS;;;;;;5.92;ICPMS;;;0.982;ICPMS;;;;;;;;;;;;;;;;;;;;;;;;;;;;;;;;;;;;;;;;;;;;;;;;;;;;;;;;;;;;;;;;;;;;;;;;;;;;;;;;;;;;;
2002;[7589] BUSA T. (2002);samp. TM7C;;ETNA/SICILY / TRIFOGLIETTO UNIT;TIMPE DI MOSCARELLO, EASTERN SLOPE OF VOLCANO;37.73;15;37.73;15;;;OUTCROP;;;SUBAERIAL;VOLCANIC ROCK;BENMOREITE;;;;;;;;;;;;WHOLE ROCK;;;;;;;;;;56.41;1.04;;;;18.19;;;;;;;;;6.77;;0.62;;6.67;2.31;0.15;;;;;;1.84;XRF;;;5.36;0.65;;;;;;;;;;;;;;;;;;;;;;;;;;;;;;;;;;;;;;;;;;81;ICPMS;;;5;ICPMS;;;13;ICPMS;;;19;ICPMS;;;32;ICPMS;;;;;;;;;;;;;;;45;ICPMS;;;;;1752;ICPMS;;;;;30;ICPMS;;;289;ICPMS;;;61;ICPMS;;;;;;;;;;;;;;;;;852;ICPMS;;;93;ICPMS;;;163;ICPMS;;;14.2;56;ICPMS;;;;;10;ICPMS;;;3.03;ICPMS;;;9.2;ICPMS;;;1.14;ICPMS;;;5.12;ICPMS;;;0.94;2.8;ICPMS;;;0.39;2.52;ICPMS;;;0.37;4.6;;;;;;;;7;ICPMS;;;;;;14;ICPMS;;;;;;;;;;;;;;;;;;;;;;;;;;;;;;;;;;;;;;;;;;;;;;;;;;;;;;;;;;;;;;;;;;;;;;;;;;;;;;;;;;;;;;;;;
1999;[7624] FRANZ G. (1999);samp. GM15D;209652;DARFUR DOME VOLCANIC PROVINCE SUDAN / MEIDOB HILLS;;15.23;26.5;15.23;26.5;;;OUTCROP;;;SUBAERIAL;VOLCANIC ROCK;BENMOREITE;;;0;6800000;NEOGENE-QUATERNARY;;;;;;;WHOLE ROCK;;;;;;;;;;58.98;1.15;;;;18.08;;;;;;;;7.44;;;;;3.62;1.68;0.1;;;;;;4.44;XRF;;;4.89;0.47;;;;;;;;;;;;0.41;;;;;;;;;;;;;;;;;;;;;;;;;0;XRF;;;;53;XRF;;;44;XRF;;;;;;;25;XRF;;;;;;;;;;;;;;;;;;;85;XRF;;;;;481;XRF;;;;;32;XRF;;;554;XRF;;;101;XRF;;;;;;;;;;;;;;;;;1022;XRF;;;86;ICPAES;;;160;ICPAES;;;;55;ICPAES;;;;;9.9;ICPAES;;;2.8;ICPAES;;;7.5;ICPAES;;;;;;;5.8;ICPAES;;;1;3.7;ICPAES;;;;3.1;ICPAES;;;0.5;9.8;;;;;;;;;;;;;;;;;;;;;;;0.512605;;;;;0.704977;;;;18.385;MC_ICPMS;;;;15.678;MC_ICPMS;;;;;39.315;MC_ICPMS;;;;;;;;;;;;;;;;;;;;;;;;;;;;;;;;;;;;;;;;;;;;;;;;;;;;;;;;;;;;;
1999;[7625] TRUA T. (1999);samp. LX7;;EAST AFRICAN RIFT / ETHIOPIAN RIFT / MAIN ETHIOPIAN RIFT / CHILALO;ASELA-ZIWAY AREA;7.56;39.1;7.56;39.1;;;OUTCROP;;;SUBAERIAL;VOLCANIC ROCK;BENMOREITE;APHYRIC;;;;;;;;;;;WHOLE ROCK;;;;;;;;;;56.2;2.22;;;;15.67;;;;;;;;;5.82;;3.61;;5.07;1.93;0.21;;;;;;1.83;XRF;;;5.48;0.89;;;;;;;;;;;;1.07;;;;;;;;;;;;;;;;;;;;;;;;;16;ICPMS;;;;77;XRF;;;3;XRF;0;ICPMS;;;;;3;XRF;5;ICPMS;;;;;;;;;;;;;;;;;43;XRF;37;ICPMS;;;828;XRF;777;ICPMS;;;69;XRF;74;ICPMS;451;XRF;416;ICPMS;56;XRF;;;;;;;;;;;;;0.2;ICPMS;;;641;XRF;639;ICPMS;75;XRF;71;ICPMS;130;ICPMS;;;19.5;85;ICPMS;;;;;18.2;ICPMS;;;6.3;ICPMS;;;18;ICPMS;;;2.58;ICPMS;;;14.7;ICPMS;;;2.62;6.6;ICPMS;;;0.92;5.7;ICPMS;;;0.82;10;3.6;;;;;;;4.9;ICPMS;;;;;;4.8;ICPMS;;;1.38;ICPMS;;;0.51282;;;;;0.70451;;;;18.561;TIMS;;;;15.566;TIMS;;;;;38.664;TIMS;;;;;;;;;;;;;;;;;;;;;;;;;;;;;;;;;;;;;;;;;;;;;;;;;;;;;;;;;;;;;
1999;[7625] TRUA T. (1999);samp. LX3;;EAST AFRICAN RIFT / ETHIOPIAN RIFT / MAIN ETHIOPIAN RIFT / CHILALO;ASELA-ZIWAY AREA;7.57;39.1;7.57;39.1;;;OUTCROP;;;SUBAERIAL;VOLCANIC ROCK;BENMOREITE;APHYRIC;;;;;;;;;;;WHOLE ROCK;;;;;;;;;;56.49;2.03;;;;16.4;;;;;;;;;2.97;;5.54;;5.06;2.43;0.33;;;;;;1.83;XRF;;;5.15;0.94;;;;;;;;;;;;0.82;;;;;;;;;;;;;;;;;;;;;;;;;;;;;;72;XRF;;;3;XRF;;;;;;;7;XRF;;;;;;;;;;;;;;;;;;;41;XRF;;;;;808;XRF;;;;;76;XRF;;;440;XRF;;;54;XRF;;;;;;;;;;;;;;;;;745;XRF;;;129;XRF;;;;;;;;;;;;;;;;;;;;;;;;;;;;;;;;;;;;;;;;;;;;;;;;;;;;;;;;;;;;;;;;;;;;;;;;;;;;;;;;;;;;;;;;;;;;;;;;;;;;;;;;;;;;;;;;;;;;;;;;;;;;;;;;;;;;;;;;;;;;;;;;;;;;;;
1999;[7625] TRUA T. (1999);samp. GX6;;EAST AFRICAN RIFT / ETHIOPIAN RIFT / MAIN ETHIOPIAN RIFT / CHILALO;ASELA-ZIWAY AREA;7.53;39.09;7.53;39.09;;;OUTCROP;;;SUBAERIAL;VOLCANIC ROCK;BENMOREITE;APHYRIC;;;;;;;;;;;WHOLE ROCK;;;;;;;;;;58.22;1.48;;;;15.51;;;;;;;;;5.08;;4.18;;4.37;1.63;0.18;;;;;;2.49;XRF;;;5.28;0.62;;;;;;;;;;;;0.97;;;;;;;;;;;;;;;;;;;;;;;;;20;ICPMS;;;;28;XRF;;;2;XRF;0;ICPMS;;;;;2;XRF;4;ICPMS;;;;;;;;;;;;;;;;;53;XRF;48;ICPMS;;;615;XRF;650;ICPMS;;;46;XRF;51;ICPMS;504;XRF;476;ICPMS;58;XRF;;;;;;;;;;;;;0.2;ICPMS;;;813;XRF;855;ICPMS;72;XRF;68;ICPMS;144;ICPMS;;;17.6;72;ICPMS;;;;;14.5;ICPMS;;;4.6;ICPMS;;;13.5;ICPMS;;;1.93;ICPMS;;;11;ICPMS;;;1.92;5;ICPMS;;;0.69;4.4;ICPMS;;;0.64;12;3.7;;;;;;;9.7;ICPMS;;;;;;5.6;ICPMS;;;1.62;ICPMS;;;0.51273;;;;;0.70466;;;;18.144;TIMS;;;;15.584;TIMS;;;;;38.4;TIMS;;;;;;;;;;;;;;;;;;;;;;;;;;;;;;;;;;;;;;;;;;;;;;;;;;;;;;;;;;;;;
1999;[7625] TRUA T. (1999);samp. GX6;;EAST AFRICAN RIFT / ETHIOPIAN RIFT / MAIN ETHIOPIAN RIFT / CHILALO;ASELA-ZIWAY AREA;7.53;39.09;7.53;39.09;;;OUTCROP;;;SUBAERIAL;VOLCANIC ROCK;BENMOREITE;APHYRIC;;;;;;;;;;;MINERAL / COMPONENT (INCL. GROUNDMASS);CLINOPYROXENE;;;;PRIMARY;;;;;49.96;0.61;;;;1.23;0;;;;;;;;;16;;;20.19;10.84;0.7;;;;;;0;EMP (EPMA);;;0.38;;;;;;;;;;;;;;;;;;;;;;;;;;;;;;;;;;;;;;;;;;;;;;;;;;;;;;;;;;;;;;;;;;;;;;;;;;;;;;;;;;;;;;;;;;;;;;;;;;;;;;;;;;;;;;;;;;;;;;;;;;;;;;;;;;;;;;;;;;;;;;;;;;;;;;;;;;;;;;;;;;;;;;;;;;;;;;;;;;;;;;;;;;;;;;;;;;;;;;;;;;;;;;;;;;;;;;;;;;;;;;;;;;;;;;;;;;;;;;42.4;;;31.7;;;;;;;;;;;;25.9;;;;;;;;;;;;;;;
1999;[7625] TRUA T. (1999);samp. GX6;;EAST AFRICAN RIFT / ETHIOPIAN RIFT / MAIN ETHIOPIAN RIFT / CHILALO;ASELA-ZIWAY AREA;7.53;39.09;7.53;39.09;;;OUTCROP;;;SUBAERIAL;VOLCANIC ROCK;BENMOREITE;APHYRIC;;;;;;;;;;;MINERAL / COMPONENT (INCL. GROUNDMASS);PLAGIOCLASE;;;;PRIMARY;;;;;61.85;;;;;23.49;;;;;;;;;;0.62;;;4.59;;;;;;;;1.9;EMP (EPMA);;;7.55;;;;;;;;;;;;;;;;;;;;;;;;;;;;;;;;;;;;;;;;;;;;;;;;;;;;;;;;;;;;;;;;;;;;;;;;;;;;;;;;;;;;;;;;;;;;;;;;;;;;;;;;;;;;;;;;;;;;;;;;;;;;;;;;;;;;;;;;;;;;;;;;;;;;;;;;;;;;;;;;;;;;;;;;;;;;;;;;;;;;;;;;;;;;;;;;;;;;;;;;;;;;;;;;;;;;;;;;;;;;;;;;;;;;;;;;;;66.6;22.4;;;;;;;;;;;;;11;;;;;;;;;;;;;;;;;;;;
1999;[7625] TRUA T. (1999);samp. GX6;;EAST AFRICAN RIFT / ETHIOPIAN RIFT / MAIN ETHIOPIAN RIFT / CHILALO;ASELA-ZIWAY AREA;7.53;39.09;7.53;39.09;;;OUTCROP;;;SUBAERIAL;VOLCANIC ROCK;BENMOREITE;APHYRIC;;;;;;;;;;;MINERAL / COMPONENT (INCL. GROUNDMASS);APATITE;;;;PRIMARY;;;;;0.18;;;;;;;;;;;;;;;0.42;;;54.9;0.22;0.12;0.07;0.18;;;;0.03;EMP (EPMA);;;;42.9;;;;;;;4.47;0.19;;;;;;;;;;;;;;;;;;;;;;;;;;;;;;;;;;;;;;;;;;;;;;;;;;;;;;;;;;;;;;;;;;;;;;;;;;;;;;;;;;;;;;;;;;;;;;;;;;;;;;;;;;;;;;;;;;;;;;;;;;;;;;;;;;;;;;;;;;;;;;;;;;;;;;;;;;;;;;;;;;;;;;;;;;;;;;;;;;;;;;;;;;;;;;;;;;;;;;;;;;;;;;;;;;;;;;;;;;;;;;;;;;;;;;;;;;;;;;;;;;;;;;;;;;;;;;;;;;;
2004;[7699] AVANZINELLI R. (2004);samp. PAN 27;188632;SICILY CHANNEL RIFT / PANTELLERIA / RONCONE UNIT;RONCONE;36.78;12;36.78;12;;;OUTCROP;;;SUBAERIAL;VOLCANIC ROCK;BENMOREITE;;;9000;9000;HOLOCENE;;;;;;;WHOLE ROCK;;;;;;;;;;57.4;1.8;;;;15.8;;;;;;;;;2.73;;4.78;;4.73;3.48;0.17;;;;;;3.16;AAS;;;5.37;0.53;;;;;;;;;;;;0.04;;;;;;;;;;;;;;;;;;;;;;;;;11;XRF;;;;116;XRF;;;71;XRF;;;18;XRF;;;46;XRF;;;;;;;106;XRF;;;;;;;;;;;48;XRF;;;;;353;XRF;;;;;36;XRF;;;403;XRF;;;77;XRF;;;;;;;;;;;;;;;;;919;XRF;;;61;XRF;;;150;XRF;;;;55;XRF;;;;;;;;;;;;;;;;;;;;;;;;;;;;;;;;;;;;;;;;;;;;;;;;;;;;;;;;;;;;;;;;;;;;;;;;;;;;;;;;;;;;;;;;;;;;;;;;;;;;;;;;;;;;;;;;;;;;;;;;;;;;;;;;;;;;;;;;;;;;;
2001;[7720] KABETO K. (2001);samp. KY8809704-B;;EAST AFRICAN RIFT / KENYA RIFT (EASTERN EAST AFRICAN RIFT) / NORTHERN KENYA RIFT / TIRR TIRR FORMATION;SAMBURU HILLS;1.67;36.5;1.83;36.67;;;OUTCROP;;;SUBAERIAL;VOLCANIC ROCK;BENMOREITE;TRACHYTIC;;3600000;4100000;PLIOCENE;;;;;;;WHOLE ROCK;;;;;;;;;;59.97;1.67;;;;15.54;;;;;;;;;1.36;;6.94;;4.79;1.67;0.22;;;;;;2.32;XRF;;;4.9;0.62;;;;;;;;;;;;;;;;;;;;;;;;;;;;;;;;;;;;;;;;;;;;;;0;XRF;;;;;;;6;XRF;;;;;;;;;;;;;;;;;;;61;XRF;;;;;554;XRF;;;;;57;XRF;;;438;XRF;;;64;XRF;;;;;;;;;;;;;;;;;1031;XRF;;;;;;;;;;;;88;XRF;;;;;16;XRF;;;;;;;;;;;;;;;;;;;;;;;;;;;;;;;;;;;;;;;;;;;;;;;;;;;;;0.512417;;;;;0.703812;;;;;;;;;;;;;;;;;;;;;;;;;;;;;;;;;;;;;;;;;;;;;;;;;;;;;;;;;;;;;;;;;;;;;;;;;;;;;
2001;[7751] LE ROEX A. P.(2001)  [GeoReM [311] ];samp. KR016;;EAST AFRICAN RIFT / KENYA RIFT (EASTERN EAST AFRICAN RIFT) / SOUTHERN KENYA RIFT / LENDERUT;;-2.0525;36.2783;-2.0525;36.2783;;;OUTCROP;;;SUBAERIAL;VOLCANIC ROCK;BENMOREITE;;;2500000;2700000;PLIOCENE-PLEISTOCENE;;;;;;;WHOLE ROCK;;;;;;;;;;53.08;1.99;;;;17.48;;;;;;;;7.97;;;;;5.16;2.77;0.14;;;;;;2.79;XRF;;;5.24;0.6;;0.38;;;;;;;;;;1.13;;;;;;;;;;;;;;;;;;;;;;;;;12.5;XRF;;;;82;XRF;;;3.4;XRF;;;12.4;XRF;;;2.2;XRF;;;7.2;XRF;;;97;XRF;;;;;;;;;;;64;XRF;;;;;1221;XRF;;;;;34;XRF;;;477;XRF;;;117;XRF;;;;;;;;;;;;;;;;;982;XRF;;;90.1;ICPMS;;;173;ICPMS;;;20.1;73.5;ICPMS;;;;;12.4;ICPMS;;;3.49;ICPMS;;;9.03;ICPMS;;;1.27;ICPMS;;;6.71;ICPMS;;;1.22;3.12;ICPMS;;;0.42;2.56;ICPMS;;;0.37;;5.94;;;;;;;11.8;ICPMS;;;;;;12.8;ICPMS;;;1.39;ICPMS;;;0.51253;;;;;0.704279;;;;18.894;TIMS;;;;15.566;TIMS;;;;;39.021;TIMS;;;;;;;;;;;;;;;;;;;;;;;;;;;;;;;;;;;;;;;;;;;;;;;;;;;;;;;;;;;;;
2001;[7751] LE ROEX A. P.(2001)  [GeoReM [311] ];samp. KR014;;EAST AFRICAN RIFT / KENYA RIFT (EASTERN EAST AFRICAN RIFT) / SOUTHERN KENYA RIFT / LENDERUT;;-2.0525;36.2783;-2.0525;36.2783;;;OUTCROP;;;SUBAERIAL;VOLCANIC ROCK;BENMOREITE;;;2500000;2700000;PLIOCENE-PLEISTOCENE;;;;;;;WHOLE ROCK;;;;;;;;;;;;;;;;;;;;;;;;;;;;;;;;;;;;;;;;;;;;;;;;;;;;;;;;;;;;;;;;;;;;;;;;;;;;;;;;;;;;;;;;;;;;;;;;;;;;;;;;;;;;;;;;;;;;;;;;;;;;;;;;;;;;;;;;;;;;;;;;;;;;;;;;;;;;;;;;;;;;;;;;;;;;;;;;;;;;;;;;;;;;;;;;;;;;;;;;;;;;;;;;;;;;;;;;;;;;;;;;;;;;;;;0.704805;;;;18.902;TIMS;;;;15.573;TIMS;;;;;39.141;TIMS;;;;;;;;;;;;;;;;;;;;;;;;;;;;;;;;;;;;;;;;;;;;;;;;;;;;;;;;;;;;;
1995;[7782] ROCHOLL A. (1995);samp. CL-1;;ANTARCTICA / WEST ANTARCTIC RIFT SYSTEM / ROSS SEA RIFT;COULMAN ISLAND, TRANSANTARCTIC MOUNTAINS, MCMURDO VOLCANIC GROUP;-73.4883;169.5767;-73.4883;169.5767;;;OUTCROP;;;SUBAERIAL;VOLCANIC ROCK;BENMOREITE;;;;;NEOGENE;;;;;;;WHOLE ROCK;;;;;;;;;;;;;;;;;;;;;;;;;;;;;;;;;;;;;;;;;;;;;;;;;;;;;;;;;;;;;;;;;;;;;;;;;;;;;;;;;;;;;;;;;;;;;;;;;;;;;;;;;;;;;;;;;;;;;;;;;;;;;;;;;;;;;;;;;;;;;;;;;;;;;;;;;;;;;;;;;;;;;;;;;;;;;;;;;;;;;;;;;;;;;;;;;;;;;;;;;;;;;;;;;;;;;;;;;;;;;;;;;;0.512934;;;;0.095;0.702902;;;0.25;;;;;;;;;;;;;;;;;;;;;;;;;;;;;;;;;;;;;;;;;;;;;;;;;;;;;;;;;;;;;;;;;;;;;;;;;;