Year;CITATION;SAMPLE NAME;UNIQUE_ID;LOCATION;LOCATION COMMENT;LATITUDE (MIN.);LONGITUDE (MIN.);LATITUDE (MAX.);LONGITUDE (MAX.);ELEVATION (MIN.);ELEVATION (MAX.);SAMPLING TECHNIQUE;DRILLING DEPTH (MIN.);DRILLING DEPTH (MAX.);LAND/SEA (SAMPLING);ROCK TYPE;ROCK NAME;ROCK TEXTURE;SAMPLE COMMENT;AGE (MIN.);AGE (MAX.);GEOLOGICAL AGE;GEOLOGICAL AGE PREFIX;ERUPTION DAY;ERUPTION MONTH;ERUPTION YEAR;ALTERATION;ALTERATION TYPE;TYPE OF MATERIAL;MINERAL / COMPONENT;SPOT (MINERAL);CRYSTAL;RIM / CORE (MINERAL GRAINS);PRIMARY/SECONDARY;INCLUSION TYPE;MINERAL (INCLUSION);HOSTMINERAL (INCLUSION);HEATING;SIO2(WT%);TIO2(WT%);ZRO2(WT%);HFO2(WT%);THO2(WT%);AL2O3(WT%);CR2O3(WT%);LA2O3(WT%);CE2O3(WT%);ND2O3(WT%);SM2O3(WT%);V2O3(WT%);NB2O5(WT%);FE2O3T(WT%);FE2O3(WT%);FEOT(WT%);FEO(WT%);FET(WT%);CAO(WT%);MGO(WT%);MNO(WT%);BAO(WT%);SRO(WT%);NIO(WT%);ZNO(WT%);RB2O(WT%);K2O(WT%);;;;NA2O(WT%);P2O5(WT%);AS2O5(WT%);H2O(WT%);H2OP(WT%);H2OM(WT%);CO2(WT%);C(WT%);F(WT%);CL(WT%);OH(WT%);SO3(WT%);S(WT%);LOI(WT%);TI(WT%);CA(WT%);K(WT%);LI(PPM);BE(PPM);B(PPM);F(PPM);P(PPM);S(PPM);CL(PPM);AR40(AT/G);;;;AR40(CCMSTP/G);;;;AR40(MOL/G);;;;AR40(PPB);K(PPM);SC(PPM);;;;TI(PPM);V(PPM);;;;CR(PPM);;;;CO(PPM);;;;NI(PPM);;;;CU(PPM);;;;ZN(PPM);;;;GA(PPM);;;;GE(PPM);AS(PPM);AS(PPB);SE(PPM);RB(PPM);;;;;;SR(PPM);;;;;;Y(PPM);;;;ZR(PPM);;;;NB(PPM);;;;MO(PPM);AG(PPM);CD(PPM);IN(PPM);SN(PPM);SB(PPM): altern. values or methods;;;;TE(PPM);CS(PPM): altern. values or methods;;;;BA(PPM): altern. values or methods;;;;LA(PPM): altern. values or methods;;;;CE(PPM): altern. values or methods;;;;PR(PPM);ND(PPM): altern. values or methods;;;;;;SM(PPM): altern. values or methods;;;;EU(PPM): altern. values or methods;;;;GD(PPM): altern. values or methods;;;;TB(PPM): altern. values or methods;;;;DY(PPM): altern. values or methods;;;;HO(PPM);ER(PPM): altern. values or methods;;;;TM(PPM);YB(PPM): altern. values or methods;;;;LU(PPM);HF(PPM);TA(PPM);W(PPM);RE(PPM);AU(PPM);HG(PPM);HG(PPB);TL(PPM);PB(PPM): altern. values or methods;;;;BI(PPM);PO210_ACT(DPM/G);RA226_ACT(DPM/G);TH(PPM): altern. values or methods;;;;U(PPM): altern. values or methods;;;;ND143_ND144;ND143_ND144_INI;EPSILON_ND;EPSILON_ND_INI;SM147_ND144;SR87_SR86;SR87_SR86_INI;EPSILON_SR_INI;RB87_SR86;PB206_PB204: altern. values or methods;;;;PB206_PB204_INI;PB207_PB204: altern. values or methods;;;;PB207_PB204_INI;PB207_PB206;PB208_PB204: altern. values or methods;;;;PB208_PB204_INI;PB208_PB206;HF176_HF177;LU176_HF177;AR38_AR36;AR40_AR36;AR40_AR36_INI;PB206_U238;PB207_U235;RA226_TH230_ACT;PA231_U235_ACT;TH230_TH232_ACT;TH230_U238_ACT;TH232_PB204;U234_U238_ACT;U235_PB204;U238_PB204;U238_TH232_ACT;D7LI(VS LSVEC);D13C(VS PDB);D18O(PER MIL);D18O(VS SMOW);D18O(VS VSMOW);D34S(VS VCDT);ALBITE(MOL%);ANORTHITE(MOL%);CA OLIVINE(MOL%);CHROMITE(MOL%);ENSTATITE(MOL%);FAYALITE(MOL%);FORSTERITE(MOL%);FERROSILITE(MOL%);HEMATITE(MOL%);HERCYNITE(MOL%);ILMENITE(MOL%);MAGNESIOFERRITE(MOL%);MONTICELLITE(MOL%);MAGNETITE(MOL%);ORTHOCLASE(MOL%);PICROCHROMITE(MOL%);SPINEL(MOL%);TEPHROITE(MOL%);ULVOSPINEL(MOL%);WOLLASTONITE(MOL%);AGE(KA): altern. values or methods;;;;;;AGE(MA): altern. values or methods;;;;;;AGE_PB207_U235(MA);AGE_PB206_U238(MA);
2008;[12263] MACDONALD R.(2008)  [GeoReM [4079] ];samp. SMN166;;EAST AFRICAN RIFT / KENYA RIFT (EASTERN EAST AFRICAN RIFT) / SOUTHERN KENYA RIFT / GREATER OLKARIA(NAIVASHA);;-0.72;36.43;-0.72;36.43;;;OUTCROP;;;SUBAERIAL;VOLCANIC ROCK;BENMOREITE;;LAVA;0;20000;QUATERNARY;;;;;;;MINERAL / COMPONENT (INCL. GROUNDMASS);FELDSPAR;;PHENOCRYST;INTERMEDIATE ZONE;PRIMARY;;;;;60.79;;;;;20.42;;;;;;;;;;0.19;;;1.51;;;4.29;0.09;;;;7.45;EMP (EPMA);;;4.32;;;;;;;;;;;;;;;;;;;;;;;;;;;;;;;;;;;;;;;;;;;;;;;;;;;;;;;;;;;;;;;;;;;;;;;;;;;;;;;;;;;;;;;;;;;;;;;;;;;;;;;;;;;;;;;;;;;;;;;;;;;;;;;;;;;;;;;;;;;;;;;;;;;;;;;;;;;;;;;;;;;;;;;;;;;;;;;;;;;;;;;;;;;;;;;;;;;;;;;;;;;;;;;;;;;;;;;;;;;;;;;;;;;;;;;;;;42.9;8.3;;;;;;;;;;;;;48.8;;;;;;;;;;;;;;;;;;;;
2008;[12263] MACDONALD R.(2008)  [GeoReM [4079] ];samp. SMN166;;EAST AFRICAN RIFT / KENYA RIFT (EASTERN EAST AFRICAN RIFT) / SOUTHERN KENYA RIFT / GREATER OLKARIA(NAIVASHA);;-0.72;36.43;-0.72;36.43;;;OUTCROP;;;SUBAERIAL;VOLCANIC ROCK;BENMOREITE;;LAVA;0;20000;QUATERNARY;;;;;;;MINERAL / COMPONENT (INCL. GROUNDMASS);FELDSPAR;;PHENOCRYST;INTERMEDIATE ZONE;PRIMARY;;;;;60.43;;;;;20.66;;;;;;;;;;0.18;;;1.57;;;4.25;0.06;;;;7.41;EMP (EPMA);;;4.38;;;;;;;;;;;;;;;;;;;;;;;;;;;;;;;;;;;;;;;;;;;;;;;;;;;;;;;;;;;;;;;;;;;;;;;;;;;;;;;;;;;;;;;;;;;;;;;;;;;;;;;;;;;;;;;;;;;;;;;;;;;;;;;;;;;;;;;;;;;;;;;;;;;;;;;;;;;;;;;;;;;;;;;;;;;;;;;;;;;;;;;;;;;;;;;;;;;;;;;;;;;;;;;;;;;;;;;;;;;;;;;;;;;;;;;;;;43.3;8.6;;;;;;;;;;;;;48.2;;;;;;;;;;;;;;;;;;;;
2008;[12263] MACDONALD R.(2008)  [GeoReM [4079] ];samp. SMN166;;EAST AFRICAN RIFT / KENYA RIFT (EASTERN EAST AFRICAN RIFT) / SOUTHERN KENYA RIFT / GREATER OLKARIA(NAIVASHA);;-0.72;36.43;-0.72;36.43;;;OUTCROP;;;SUBAERIAL;VOLCANIC ROCK;BENMOREITE;;LAVA;0;20000;QUATERNARY;;;;;;;MINERAL / COMPONENT (INCL. GROUNDMASS);FELDSPAR;;PHENOCRYST;INTERMEDIATE ZONE;PRIMARY;;;;;60.53;;;;;20.59;;;;;;;;;;0.17;;;1.46;;;4.12;0.11;;;;7.56;EMP (EPMA);;;4.39;;;;;;;;;;;;;;;;;;;;;;;;;;;;;;;;;;;;;;;;;;;;;;;;;;;;;;;;;;;;;;;;;;;;;;;;;;;;;;;;;;;;;;;;;;;;;;;;;;;;;;;;;;;;;;;;;;;;;;;;;;;;;;;;;;;;;;;;;;;;;;;;;;;;;;;;;;;;;;;;;;;;;;;;;;;;;;;;;;;;;;;;;;;;;;;;;;;;;;;;;;;;;;;;;;;;;;;;;;;;;;;;;;;;;;;;;;43.1;8;;;;;;;;;;;;;48.9;;;;;;;;;;;;;;;;;;;;
2008;[12263] MACDONALD R.(2008)  [GeoReM [4079] ];samp. SMN166;;EAST AFRICAN RIFT / KENYA RIFT (EASTERN EAST AFRICAN RIFT) / SOUTHERN KENYA RIFT / GREATER OLKARIA(NAIVASHA);;-0.72;36.43;-0.72;36.43;;;OUTCROP;;;SUBAERIAL;VOLCANIC ROCK;BENMOREITE;;LAVA;0;20000;QUATERNARY;;;;;;;MINERAL / COMPONENT (INCL. GROUNDMASS);FELDSPAR;;PHENOCRYST;INTERMEDIATE ZONE;PRIMARY;;;;;60.96;;;;;20.45;;;;;;;;;;0.19;;;1.45;;;3.88;0.08;;;;7.67;EMP (EPMA);;;4.47;;;;;;;;;;;;;;;;;;;;;;;;;;;;;;;;;;;;;;;;;;;;;;;;;;;;;;;;;;;;;;;;;;;;;;;;;;;;;;;;;;;;;;;;;;;;;;;;;;;;;;;;;;;;;;;;;;;;;;;;;;;;;;;;;;;;;;;;;;;;;;;;;;;;;;;;;;;;;;;;;;;;;;;;;;;;;;;;;;;;;;;;;;;;;;;;;;;;;;;;;;;;;;;;;;;;;;;;;;;;;;;;;;;;;;;;;;43.3;7.8;;;;;;;;;;;;;48.9;;;;;;;;;;;;;;;;;;;;
2008;[12263] MACDONALD R.(2008)  [GeoReM [4079] ];samp. SMN166;;EAST AFRICAN RIFT / KENYA RIFT (EASTERN EAST AFRICAN RIFT) / SOUTHERN KENYA RIFT / GREATER OLKARIA(NAIVASHA);;-0.72;36.43;-0.72;36.43;;;OUTCROP;;;SUBAERIAL;VOLCANIC ROCK;BENMOREITE;;LAVA;0;20000;QUATERNARY;;;;;;;MINERAL / COMPONENT (INCL. GROUNDMASS);FELDSPAR;;PHENOCRYST;INTERMEDIATE ZONE;PRIMARY;;;;;61.03;;;;;20.38;;;;;;;;;;0.19;;;1.35;;;3.78;0.07;;;;7.8;EMP (EPMA);;;4.42;;;;;;;;;;;;;;;;;;;;;;;;;;;;;;;;;;;;;;;;;;;;;;;;;;;;;;;;;;;;;;;;;;;;;;;;;;;;;;;;;;;;;;;;;;;;;;;;;;;;;;;;;;;;;;;;;;;;;;;;;;;;;;;;;;;;;;;;;;;;;;;;;;;;;;;;;;;;;;;;;;;;;;;;;;;;;;;;;;;;;;;;;;;;;;;;;;;;;;;;;;;;;;;;;;;;;;;;;;;;;;;;;;;;;;;;;;42.9;7.3;;;;;;;;;;;;;49.8;;;;;;;;;;;;;;;;;;;;
2008;[12263] MACDONALD R.(2008)  [GeoReM [4079] ];samp. SMN166;;EAST AFRICAN RIFT / KENYA RIFT (EASTERN EAST AFRICAN RIFT) / SOUTHERN KENYA RIFT / GREATER OLKARIA(NAIVASHA);;-0.72;36.43;-0.72;36.43;;;OUTCROP;;;SUBAERIAL;VOLCANIC ROCK;BENMOREITE;;LAVA;0;20000;QUATERNARY;;;;;;;MINERAL / COMPONENT (INCL. GROUNDMASS);FELDSPAR;;PHENOCRYST;RIM;PRIMARY;;;;;60.09;;;;;18.45;;;;;;;;;;3.82;;;1.31;;;2.25;0.06;;;;6.87;EMP (EPMA);;;5.15;;;;;;;;;;;;;;;;;;;;;;;;;;;;;;;;;;;;;;;;;;;;;;;;;;;;;;;;;;;;;;;;;;;;;;;;;;;;;;;;;;;;;;;;;;;;;;;;;;;;;;;;;;;;;;;;;;;;;;;;;;;;;;;;;;;;;;;;;;;;;;;;;;;;;;;;;;;;;;;;;;;;;;;;;;;;;;;;;;;;;;;;;;;;;;;;;;;;;;;;;;;;;;;;;;;;;;;;;;;;;;;;;;;;;;;;;;49.6;7;;;;;;;;;;;;;43.4;;;;;;;;;;;;;;;;;;;;
2008;[12263] MACDONALD R.(2008)  [GeoReM [4079] ];samp. SMN165B;;EAST AFRICAN RIFT / KENYA RIFT (EASTERN EAST AFRICAN RIFT) / SOUTHERN KENYA RIFT / GREATER OLKARIA(NAIVASHA);;-0.72;36.43;-0.72;36.43;;;OUTCROP;;;SUBAERIAL;VOLCANIC ROCK;BENMOREITE;;LAVA;0;20000;QUATERNARY;;;;;;;MINERAL / COMPONENT (INCL. GROUNDMASS);FELDSPAR;;PHENOCRYST;CORE;PRIMARY;;;;;66.75;;;;;18.18;;;;;;;;;;0.54;;;0;;;0.01;0.02;;;;7.79;EMP (EPMA);;;6.22;;;;;;;;;;;;;;;;;;;;;;;;;;;;;;;;;;;;;;;;;;;;;;;;;;;;;;;;;;;;;;;;;;;;;;;;;;;;;;;;;;;;;;;;;;;;;;;;;;;;;;;;;;;;;;;;;;;;;;;;;;;;;;;;;;;;;;;;;;;;;;;;;;;;;;;;;;;;;;;;;;;;;;;;;;;;;;;;;;;;;;;;;;;;;;;;;;;;;;;;;;;;;;;;;;;;;;;;;;;;;;;;;;;;;;;;;;54.8;0;;;;;;;;;;;;;45.2;;;;;;;;;;;;;;;;;;;;
2008;[12263] MACDONALD R.(2008)  [GeoReM [4079] ];samp. SMN165B;;EAST AFRICAN RIFT / KENYA RIFT (EASTERN EAST AFRICAN RIFT) / SOUTHERN KENYA RIFT / GREATER OLKARIA(NAIVASHA);;-0.72;36.43;-0.72;36.43;;;OUTCROP;;;SUBAERIAL;VOLCANIC ROCK;BENMOREITE;;LAVA;0;20000;QUATERNARY;;;;;;;MINERAL / COMPONENT (INCL. GROUNDMASS);FELDSPAR;;PHENOCRYST;INTERMEDIATE ZONE;PRIMARY;;;;;67.24;;;;;18.27;;;;;;;;;;0.4;;;0.02;;;0;0.03;;;;7.67;EMP (EPMA);;;6.37;;;;;;;;;;;;;;;;;;;;;;;;;;;;;;;;;;;;;;;;;;;;;;;;;;;;;;;;;;;;;;;;;;;;;;;;;;;;;;;;;;;;;;;;;;;;;;;;;;;;;;;;;;;;;;;;;;;;;;;;;;;;;;;;;;;;;;;;;;;;;;;;;;;;;;;;;;;;;;;;;;;;;;;;;;;;;;;;;;;;;;;;;;;;;;;;;;;;;;;;;;;;;;;;;;;;;;;;;;;;;;;;;;;;;;;;;;55.7;0.1;;;;;;;;;;;;;44.2;;;;;;;;;;;;;;;;;;;;
2008;[12263] MACDONALD R.(2008)  [GeoReM [4079] ];samp. SMN165B;;EAST AFRICAN RIFT / KENYA RIFT (EASTERN EAST AFRICAN RIFT) / SOUTHERN KENYA RIFT / GREATER OLKARIA(NAIVASHA);;-0.72;36.43;-0.72;36.43;;;OUTCROP;;;SUBAERIAL;VOLCANIC ROCK;BENMOREITE;;LAVA;0;20000;QUATERNARY;;;;;;;MINERAL / COMPONENT (INCL. GROUNDMASS);FELDSPAR;;PHENOCRYST;INTERMEDIATE ZONE;PRIMARY;;;;;66.7;;;;;18.21;;;;;;;;;;0.59;;;0.01;;;0;0.04;;;;7.64;EMP (EPMA);;;6.2;;;;;;;;;;;;;;;;;;;;;;;;;;;;;;;;;;;;;;;;;;;;;;;;;;;;;;;;;;;;;;;;;;;;;;;;;;;;;;;;;;;;;;;;;;;;;;;;;;;;;;;;;;;;;;;;;;;;;;;;;;;;;;;;;;;;;;;;;;;;;;;;;;;;;;;;;;;;;;;;;;;;;;;;;;;;;;;;;;;;;;;;;;;;;;;;;;;;;;;;;;;;;;;;;;;;;;;;;;;;;;;;;;;;;;;;;;55.2;0.1;;;;;;;;;;;;;44.8;;;;;;;;;;;;;;;;;;;;
2008;[12263] MACDONALD R.(2008)  [GeoReM [4079] ];samp. SMN165B;;EAST AFRICAN RIFT / KENYA RIFT (EASTERN EAST AFRICAN RIFT) / SOUTHERN KENYA RIFT / GREATER OLKARIA(NAIVASHA);;-0.72;36.43;-0.72;36.43;;;OUTCROP;;;SUBAERIAL;VOLCANIC ROCK;BENMOREITE;;LAVA;0;20000;QUATERNARY;;;;;;;MINERAL / COMPONENT (INCL. GROUNDMASS);FELDSPAR;;PHENOCRYST;INTERMEDIATE ZONE;PRIMARY;;;;;66.93;;;;;18.16;;;;;;;;;;0.56;;;0.03;;;0;0.05;;;;7.67;EMP (EPMA);;;6.24;;;;;;;;;;;;;;;;;;;;;;;;;;;;;;;;;;;;;;;;;;;;;;;;;;;;;;;;;;;;;;;;;;;;;;;;;;;;;;;;;;;;;;;;;;;;;;;;;;;;;;;;;;;;;;;;;;;;;;;;;;;;;;;;;;;;;;;;;;;;;;;;;;;;;;;;;;;;;;;;;;;;;;;;;;;;;;;;;;;;;;;;;;;;;;;;;;;;;;;;;;;;;;;;;;;;;;;;;;;;;;;;;;;;;;;;;;55.2;0.1;;;;;;;;;;;;;44.7;;;;;;;;;;;;;;;;;;;;
2008;[12263] MACDONALD R.(2008)  [GeoReM [4079] ];samp. SMN165B;;EAST AFRICAN RIFT / KENYA RIFT (EASTERN EAST AFRICAN RIFT) / SOUTHERN KENYA RIFT / GREATER OLKARIA(NAIVASHA);;-0.72;36.43;-0.72;36.43;;;OUTCROP;;;SUBAERIAL;VOLCANIC ROCK;BENMOREITE;;LAVA;0;20000;QUATERNARY;;;;;;;MINERAL / COMPONENT (INCL. GROUNDMASS);FELDSPAR;;PHENOCRYST;RIM;PRIMARY;;;;;66.48;;;;;18.05;;;;;;;;;;0.39;;;0.03;;;0.01;0.01;;;;7.94;EMP (EPMA);;;6.3;;;;;;;;;;;;;;;;;;;;;;;;;;;;;;;;;;;;;;;;;;;;;;;;;;;;;;;;;;;;;;;;;;;;;;;;;;;;;;;;;;;;;;;;;;;;;;;;;;;;;;;;;;;;;;;;;;;;;;;;;;;;;;;;;;;;;;;;;;;;;;;;;;;;;;;;;;;;;;;;;;;;;;;;;;;;;;;;;;;;;;;;;;;;;;;;;;;;;;;;;;;;;;;;;;;;;;;;;;;;;;;;;;;;;;;;;;54.6;0.1;;;;;;;;;;;;;45.3;;;;;;;;;;;;;;;;;;;;
2008;[12263] MACDONALD R.(2008)  [GeoReM [4079] ];samp. SMN165B;;EAST AFRICAN RIFT / KENYA RIFT (EASTERN EAST AFRICAN RIFT) / SOUTHERN KENYA RIFT / GREATER OLKARIA(NAIVASHA);;-0.72;36.43;-0.72;36.43;;;OUTCROP;;;SUBAERIAL;VOLCANIC ROCK;BENMOREITE;;LAVA;0;20000;QUATERNARY;;;;;;;MINERAL / COMPONENT (INCL. GROUNDMASS);FELDSPAR;;PHENOCRYST;CORE;PRIMARY;;;;;58.37;;;;;25.12;;;;;;;;;;0.33;;;7.45;;;0.84;0.1;;;;1.77;EMP (EPMA);;;5.99;;;;;;;;;;;;;;;;;;;;;;;;;;;;;;;;;;;;;;;;;;;;;;;;;;;;;;;;;;;;;;;;;;;;;;;;;;;;;;;;;;;;;;;;;;;;;;;;;;;;;;;;;;;;;;;;;;;;;;;;;;;;;;;;;;;;;;;;;;;;;;;;;;;;;;;;;;;;;;;;;;;;;;;;;;;;;;;;;;;;;;;;;;;;;;;;;;;;;;;;;;;;;;;;;;;;;;;;;;;;;;;;;;;;;;;;;;53.2;36.5;;;;;;;;;;;;;10.3;;;;;;;;;;;;;;;;;;;;
2008;[12263] MACDONALD R.(2008)  [GeoReM [4079] ];samp. SMN165B;;EAST AFRICAN RIFT / KENYA RIFT (EASTERN EAST AFRICAN RIFT) / SOUTHERN KENYA RIFT / GREATER OLKARIA(NAIVASHA);;-0.72;36.43;-0.72;36.43;;;OUTCROP;;;SUBAERIAL;VOLCANIC ROCK;BENMOREITE;;LAVA;0;20000;QUATERNARY;;;;;;;MINERAL / COMPONENT (INCL. GROUNDMASS);FELDSPAR;;PHENOCRYST;INTERMEDIATE ZONE;PRIMARY;;;;;58.99;;;;;24.44;;;;;;;;;;0.34;;;6.74;;;1.05;0.14;;;;2.06;EMP (EPMA);;;5.97;;;;;;;;;;;;;;;;;;;;;;;;;;;;;;;;;;;;;;;;;;;;;;;;;;;;;;;;;;;;;;;;;;;;;;;;;;;;;;;;;;;;;;;;;;;;;;;;;;;;;;;;;;;;;;;;;;;;;;;;;;;;;;;;;;;;;;;;;;;;;;;;;;;;;;;;;;;;;;;;;;;;;;;;;;;;;;;;;;;;;;;;;;;;;;;;;;;;;;;;;;;;;;;;;;;;;;;;;;;;;;;;;;;;;;;;;;54;33.7;;;;;;;;;;;;;12.3;;;;;;;;;;;;;;;;;;;;
2008;[12263] MACDONALD R.(2008)  [GeoReM [4079] ];samp. SMN165B;;EAST AFRICAN RIFT / KENYA RIFT (EASTERN EAST AFRICAN RIFT) / SOUTHERN KENYA RIFT / GREATER OLKARIA(NAIVASHA);;-0.72;36.43;-0.72;36.43;;;OUTCROP;;;SUBAERIAL;VOLCANIC ROCK;BENMOREITE;;LAVA;0;20000;QUATERNARY;;;;;;;MINERAL / COMPONENT (INCL. GROUNDMASS);FELDSPAR;;PHENOCRYST;INTERMEDIATE ZONE;PRIMARY;;;;;58.29;;;;;24.76;;;;;;;;;;0.35;;;6.84;;;0.97;0.12;;;;1.95;EMP (EPMA);;;6.03;;;;;;;;;;;;;;;;;;;;;;;;;;;;;;;;;;;;;;;;;;;;;;;;;;;;;;;;;;;;;;;;;;;;;;;;;;;;;;;;;;;;;;;;;;;;;;;;;;;;;;;;;;;;;;;;;;;;;;;;;;;;;;;;;;;;;;;;;;;;;;;;;;;;;;;;;;;;;;;;;;;;;;;;;;;;;;;;;;;;;;;;;;;;;;;;;;;;;;;;;;;;;;;;;;;;;;;;;;;;;;;;;;;;;;;;;;54.3;34.1;;;;;;;;;;;;;11.6;;;;;;;;;;;;;;;;;;;;
2008;[12263] MACDONALD R.(2008)  [GeoReM [4079] ];samp. SMN165B;;EAST AFRICAN RIFT / KENYA RIFT (EASTERN EAST AFRICAN RIFT) / SOUTHERN KENYA RIFT / GREATER OLKARIA(NAIVASHA);;-0.72;36.43;-0.72;36.43;;;OUTCROP;;;SUBAERIAL;VOLCANIC ROCK;BENMOREITE;;LAVA;0;20000;QUATERNARY;;;;;;;MINERAL / COMPONENT (INCL. GROUNDMASS);FELDSPAR;;PHENOCRYST;RIM;PRIMARY;;;;;59.74;;;;;24.05;;;;;;;;;;0.28;;;6;;;0.96;0.09;;;;2.43;EMP (EPMA);;;6.3;;;;;;;;;;;;;;;;;;;;;;;;;;;;;;;;;;;;;;;;;;;;;;;;;;;;;;;;;;;;;;;;;;;;;;;;;;;;;;;;;;;;;;;;;;;;;;;;;;;;;;;;;;;;;;;;;;;;;;;;;;;;;;;;;;;;;;;;;;;;;;;;;;;;;;;;;;;;;;;;;;;;;;;;;;;;;;;;;;;;;;;;;;;;;;;;;;;;;;;;;;;;;;;;;;;;;;;;;;;;;;;;;;;;;;;;;;56.2;29.6;;;;;;;;;;;;;14.3;;;;;;;;;;;;;;;;;;;;
2008;[12263] MACDONALD R.(2008)  [GeoReM [4079] ];samp. SMN165B;;EAST AFRICAN RIFT / KENYA RIFT (EASTERN EAST AFRICAN RIFT) / SOUTHERN KENYA RIFT / GREATER OLKARIA(NAIVASHA);;-0.72;36.43;-0.72;36.43;;;OUTCROP;;;SUBAERIAL;VOLCANIC ROCK;BENMOREITE;;LAVA;0;20000;QUATERNARY;;;;;;;MINERAL / COMPONENT (INCL. GROUNDMASS);FELDSPAR;;PHENOCRYST;CORE;PRIMARY;;;;;63.7;;;;;19.23;;;;;;;;;;0.16;;;1.06;;;0.46;0.04;;;;8.85;EMP (EPMA);;;4.93;;;;;;;;;;;;;;;;;;;;;;;;;;;;;;;;;;;;;;;;;;;;;;;;;;;;;;;;;;;;;;;;;;;;;;;;;;;;;;;;;;;;;;;;;;;;;;;;;;;;;;;;;;;;;;;;;;;;;;;;;;;;;;;;;;;;;;;;;;;;;;;;;;;;;;;;;;;;;;;;;;;;;;;;;;;;;;;;;;;;;;;;;;;;;;;;;;;;;;;;;;;;;;;;;;;;;;;;;;;;;;;;;;;;;;;;;;43.5;5.2;;;;;;;;;;;;;51.4;;;;;;;;;;;;;;;;;;;;
2008;[12263] MACDONALD R.(2008)  [GeoReM [4079] ];samp. SMN165B;;EAST AFRICAN RIFT / KENYA RIFT (EASTERN EAST AFRICAN RIFT) / SOUTHERN KENYA RIFT / GREATER OLKARIA(NAIVASHA);;-0.72;36.43;-0.72;36.43;;;OUTCROP;;;SUBAERIAL;VOLCANIC ROCK;BENMOREITE;;LAVA;0;20000;QUATERNARY;;;;;;;MINERAL / COMPONENT (INCL. GROUNDMASS);FELDSPAR;;PHENOCRYST;CORE;PRIMARY;;;;;61;;;;;20.21;;;;;;;;;;0.17;;;1.48;;;3.37;0.05;;;;7.52;EMP (EPMA);;;4.69;;;;;;;;;;;;;;;;;;;;;;;;;;;;;;;;;;;;;;;;;;;;;;;;;;;;;;;;;;;;;;;;;;;;;;;;;;;;;;;;;;;;;;;;;;;;;;;;;;;;;;;;;;;;;;;;;;;;;;;;;;;;;;;;;;;;;;;;;;;;;;;;;;;;;;;;;;;;;;;;;;;;;;;;;;;;;;;;;;;;;;;;;;;;;;;;;;;;;;;;;;;;;;;;;;;;;;;;;;;;;;;;;;;;;;;;;;44.9;7.8;;;;;;;;;;;;;47.3;;;;;;;;;;;;;;;;;;;;
2008;[12263] MACDONALD R.(2008)  [GeoReM [4079] ];samp. SMN165B;;EAST AFRICAN RIFT / KENYA RIFT (EASTERN EAST AFRICAN RIFT) / SOUTHERN KENYA RIFT / GREATER OLKARIA(NAIVASHA);;-0.72;36.43;-0.72;36.43;;;OUTCROP;;;SUBAERIAL;VOLCANIC ROCK;BENMOREITE;;LAVA;0;20000;QUATERNARY;;;;;;;MINERAL / COMPONENT (INCL. GROUNDMASS);FELDSPAR;;PHENOCRYST;CORE;PRIMARY;;;;;66.9;;;;;18.2;;;;;;;;;;0.54;;;0.02;;;0.02;0.08;;;;7.85;EMP (EPMA);;;6.3;;;;;;;;;;;;;;;;;;;;;;;;;;;;;;;;;;;;;;;;;;;;;;;;;;;;;;;;;;;;;;;;;;;;;;;;;;;;;;;;;;;;;;;;;;;;;;;;;;;;;;;;;;;;;;;;;;;;;;;;;;;;;;;;;;;;;;;;;;;;;;;;;;;;;;;;;;;;;;;;;;;;;;;;;;;;;;;;;;;;;;;;;;;;;;;;;;;;;;;;;;;;;;;;;;;;;;;;;;;;;;;;;;;;;;;;;;54.9;0.1;;;;;;;;;;;;;45;;;;;;;;;;;;;;;;;;;;
2008;[12263] MACDONALD R.(2008)  [GeoReM [4079] ];samp. SMN165B;;EAST AFRICAN RIFT / KENYA RIFT (EASTERN EAST AFRICAN RIFT) / SOUTHERN KENYA RIFT / GREATER OLKARIA(NAIVASHA);;-0.72;36.43;-0.72;36.43;;;OUTCROP;;;SUBAERIAL;VOLCANIC ROCK;BENMOREITE;;LAVA;0;20000;QUATERNARY;;;;;;;MINERAL / COMPONENT (INCL. GROUNDMASS);FELDSPAR;;PHENOCRYST;INTERMEDIATE ZONE;PRIMARY;;;;;67.26;;;;;18.26;;;;;;;;;;0.58;;;0.02;;;0.05;0.03;;;;7.7;EMP (EPMA);;;6.39;;;;;;;;;;;;;;;;;;;;;;;;;;;;;;;;;;;;;;;;;;;;;;;;;;;;;;;;;;;;;;;;;;;;;;;;;;;;;;;;;;;;;;;;;;;;;;;;;;;;;;;;;;;;;;;;;;;;;;;;;;;;;;;;;;;;;;;;;;;;;;;;;;;;;;;;;;;;;;;;;;;;;;;;;;;;;;;;;;;;;;;;;;;;;;;;;;;;;;;;;;;;;;;;;;;;;;;;;;;;;;;;;;;;;;;;;;55.7;0.1;;;;;;;;;;;;;44.2;;;;;;;;;;;;;;;;;;;;
2008;[12263] MACDONALD R.(2008)  [GeoReM [4079] ];samp. SMN165B;;EAST AFRICAN RIFT / KENYA RIFT (EASTERN EAST AFRICAN RIFT) / SOUTHERN KENYA RIFT / GREATER OLKARIA(NAIVASHA);;-0.72;36.43;-0.72;36.43;;;OUTCROP;;;SUBAERIAL;VOLCANIC ROCK;BENMOREITE;;LAVA;0;20000;QUATERNARY;;;;;;;MINERAL / COMPONENT (INCL. GROUNDMASS);FELDSPAR;;PHENOCRYST;INTERMEDIATE ZONE;PRIMARY;;;;;67.31;;;;;18.17;;;;;;;;;;0.6;;;0.03;;;0;0.06;;;;7.69;EMP (EPMA);;;6.19;;;;;;;;;;;;;;;;;;;;;;;;;;;;;;;;;;;;;;;;;;;;;;;;;;;;;;;;;;;;;;;;;;;;;;;;;;;;;;;;;;;;;;;;;;;;;;;;;;;;;;;;;;;;;;;;;;;;;;;;;;;;;;;;;;;;;;;;;;;;;;;;;;;;;;;;;;;;;;;;;;;;;;;;;;;;;;;;;;;;;;;;;;;;;;;;;;;;;;;;;;;;;;;;;;;;;;;;;;;;;;;;;;;;;;;;;;54.9;0.2;;;;;;;;;;;;;44.9;;;;;;;;;;;;;;;;;;;;
2008;[12263] MACDONALD R.(2008)  [GeoReM [4079] ];samp. SMN165B;;EAST AFRICAN RIFT / KENYA RIFT (EASTERN EAST AFRICAN RIFT) / SOUTHERN KENYA RIFT / GREATER OLKARIA(NAIVASHA);;-0.72;36.43;-0.72;36.43;;;OUTCROP;;;SUBAERIAL;VOLCANIC ROCK;BENMOREITE;;LAVA;0;20000;QUATERNARY;;;;;;;MINERAL / COMPONENT (INCL. GROUNDMASS);FELDSPAR;;PHENOCRYST;RIM;PRIMARY;;;;;67.6;;;;;18.33;;;;;;;;;;0.45;;;0.03;;;0.01;0.03;;;;7.73;EMP (EPMA);;;6.28;;;;;;;;;;;;;;;;;;;;;;;;;;;;;;;;;;;;;;;;;;;;;;;;;;;;;;;;;;;;;;;;;;;;;;;;;;;;;;;;;;;;;;;;;;;;;;;;;;;;;;;;;;;;;;;;;;;;;;;;;;;;;;;;;;;;;;;;;;;;;;;;;;;;;;;;;;;;;;;;;;;;;;;;;;;;;;;;;;;;;;;;;;;;;;;;;;;;;;;;;;;;;;;;;;;;;;;;;;;;;;;;;;;;;;;;;;55.2;0.1;;;;;;;;;;;;;44.7;;;;;;;;;;;;;;;;;;;;
2008;[12263] MACDONALD R.(2008)  [GeoReM [4079] ];samp. SMN165B;;EAST AFRICAN RIFT / KENYA RIFT (EASTERN EAST AFRICAN RIFT) / SOUTHERN KENYA RIFT / GREATER OLKARIA(NAIVASHA);;-0.72;36.43;-0.72;36.43;;;OUTCROP;;;SUBAERIAL;VOLCANIC ROCK;BENMOREITE;;LAVA;0;20000;QUATERNARY;;;;;;;MINERAL / COMPONENT (INCL. GROUNDMASS);FELDSPAR;;PHENOCRYST;CORE;PRIMARY;;;;;67.27;;;;;18.27;;;;;;;;;;0.47;;;0;;;0;0.03;;;;7.81;EMP (EPMA);;;6.29;;;;;;;;;;;;;;;;;;;;;;;;;;;;;;;;;;;;;;;;;;;;;;;;;;;;;;;;;;;;;;;;;;;;;;;;;;;;;;;;;;;;;;;;;;;;;;;;;;;;;;;;;;;;;;;;;;;;;;;;;;;;;;;;;;;;;;;;;;;;;;;;;;;;;;;;;;;;;;;;;;;;;;;;;;;;;;;;;;;;;;;;;;;;;;;;;;;;;;;;;;;;;;;;;;;;;;;;;;;;;;;;;;;;;;;;;;55.1;0;;;;;;;;;;;;;44.9;;;;;;;;;;;;;;;;;;;;
2008;[12263] MACDONALD R.(2008)  [GeoReM [4079] ];samp. SMN165B;;EAST AFRICAN RIFT / KENYA RIFT (EASTERN EAST AFRICAN RIFT) / SOUTHERN KENYA RIFT / GREATER OLKARIA(NAIVASHA);;-0.72;36.43;-0.72;36.43;;;OUTCROP;;;SUBAERIAL;VOLCANIC ROCK;BENMOREITE;;LAVA;0;20000;QUATERNARY;;;;;;;MINERAL / COMPONENT (INCL. GROUNDMASS);FELDSPAR;;PHENOCRYST;INTERMEDIATE ZONE;PRIMARY;;;;;67.06;;;;;18.42;;;;;;;;;;0.48;;;0;;;0;0;;;;7.81;EMP (EPMA);;;6.15;;;;;;;;;;;;;;;;;;;;;;;;;;;;;;;;;;;;;;;;;;;;;;;;;;;;;;;;;;;;;;;;;;;;;;;;;;;;;;;;;;;;;;;;;;;;;;;;;;;;;;;;;;;;;;;;;;;;;;;;;;;;;;;;;;;;;;;;;;;;;;;;;;;;;;;;;;;;;;;;;;;;;;;;;;;;;;;;;;;;;;;;;;;;;;;;;;;;;;;;;;;;;;;;;;;;;;;;;;;;;;;;;;;;;;;;;;54.4;0;;;;;;;;;;;;;45.5;;;;;;;;;;;;;;;;;;;;