Year;CITATION;SAMPLE NAME;UNIQUE_ID;LOCATION;LOCATION COMMENT;LATITUDE (MIN.);LONGITUDE (MIN.);LATITUDE (MAX.);LONGITUDE (MAX.);ELEVATION (MIN.);ELEVATION (MAX.);SAMPLING TECHNIQUE;DRILLING DEPTH (MIN.);DRILLING DEPTH (MAX.);LAND/SEA (SAMPLING);ROCK TYPE;ROCK NAME;ROCK TEXTURE;SAMPLE COMMENT;AGE (MIN.);AGE (MAX.);GEOLOGICAL AGE;GEOLOGICAL AGE PREFIX;ERUPTION DAY;ERUPTION MONTH;ERUPTION YEAR;ALTERATION;ALTERATION TYPE;TYPE OF MATERIAL;MINERAL / COMPONENT;SPOT (MINERAL);CRYSTAL;RIM / CORE (MINERAL GRAINS);PRIMARY/SECONDARY;INCLUSION TYPE;MINERAL (INCLUSION);HOSTMINERAL (INCLUSION);HEATING;SIO2(WT%);TIO2(WT%);ZRO2(WT%);HFO2(WT%);THO2(WT%);AL2O3(WT%);CR2O3(WT%);LA2O3(WT%);CE2O3(WT%);ND2O3(WT%);SM2O3(WT%);V2O3(WT%);NB2O5(WT%);FE2O3T(WT%);FE2O3(WT%);FEOT(WT%);FEO(WT%);FET(WT%);CAO(WT%);MGO(WT%);MNO(WT%);BAO(WT%);SRO(WT%);NIO(WT%);ZNO(WT%);RB2O(WT%);K2O(WT%);;;;NA2O(WT%);P2O5(WT%);AS2O5(WT%);H2O(WT%);H2OP(WT%);H2OM(WT%);CO2(WT%);C(WT%);F(WT%);CL(WT%);OH(WT%);SO3(WT%);S(WT%);LOI(WT%);TI(WT%);CA(WT%);K(WT%);LI(PPM);BE(PPM);B(PPM);F(PPM);P(PPM);S(PPM);CL(PPM);AR40(AT/G);;;;AR40(CCMSTP/G);;;;AR40(MOL/G);;;;AR40(PPB);K(PPM);SC(PPM);;;;TI(PPM);V(PPM);;;;CR(PPM);;;;CO(PPM);;;;NI(PPM);;;;CU(PPM);;;;ZN(PPM);;;;GA(PPM);;;;GE(PPM);AS(PPM);AS(PPB);SE(PPM);RB(PPM);;;;;;SR(PPM);;;;;;Y(PPM);;;;ZR(PPM);;;;NB(PPM);;;;MO(PPM);AG(PPM);CD(PPM);IN(PPM);SN(PPM);SB(PPM): altern. values or methods;;;;TE(PPM);CS(PPM): altern. values or methods;;;;BA(PPM): altern. values or methods;;;;LA(PPM): altern. values or methods;;;;CE(PPM): altern. values or methods;;;;PR(PPM);ND(PPM): altern. values or methods;;;;;;SM(PPM): altern. values or methods;;;;EU(PPM): altern. values or methods;;;;GD(PPM): altern. values or methods;;;;TB(PPM): altern. values or methods;;;;DY(PPM): altern. values or methods;;;;HO(PPM);ER(PPM): altern. values or methods;;;;TM(PPM);YB(PPM): altern. values or methods;;;;LU(PPM);HF(PPM);TA(PPM);W(PPM);RE(PPM);AU(PPM);HG(PPM);HG(PPB);TL(PPM);PB(PPM): altern. values or methods;;;;BI(PPM);PO210_ACT(DPM/G);RA226_ACT(DPM/G);TH(PPM): altern. values or methods;;;;U(PPM): altern. values or methods;;;;ND143_ND144;ND143_ND144_INI;EPSILON_ND;EPSILON_ND_INI;SM147_ND144;SR87_SR86;SR87_SR86_INI;EPSILON_SR_INI;RB87_SR86;PB206_PB204: altern. values or methods;;;;PB206_PB204_INI;PB207_PB204: altern. values or methods;;;;PB207_PB204_INI;PB207_PB206;PB208_PB204: altern. values or methods;;;;PB208_PB204_INI;PB208_PB206;HF176_HF177;LU176_HF177;AR38_AR36;AR40_AR36;AR40_AR36_INI;PB206_U238;PB207_U235;RA226_TH230_ACT;PA231_U235_ACT;TH230_TH232_ACT;TH230_U238_ACT;TH232_PB204;U234_U238_ACT;U235_PB204;U238_PB204;U238_TH232_ACT;D7LI(VS LSVEC);D13C(VS PDB);D18O(PER MIL);D18O(VS SMOW);D18O(VS VSMOW);D34S(VS VCDT);ALBITE(MOL%);ANORTHITE(MOL%);CA OLIVINE(MOL%);CHROMITE(MOL%);ENSTATITE(MOL%);FAYALITE(MOL%);FORSTERITE(MOL%);FERROSILITE(MOL%);HEMATITE(MOL%);HERCYNITE(MOL%);ILMENITE(MOL%);MAGNESIOFERRITE(MOL%);MONTICELLITE(MOL%);MAGNETITE(MOL%);ORTHOCLASE(MOL%);PICROCHROMITE(MOL%);SPINEL(MOL%);TEPHROITE(MOL%);ULVOSPINEL(MOL%);WOLLASTONITE(MOL%);AGE(KA): altern. values or methods;;;;;;AGE(MA): altern. values or methods;;;;;;AGE_PB207_U235(MA);AGE_PB206_U238(MA);
1999;[10030] STIRLING D. (1999);samp. BENMOREITE;;ETNA/SICILY;;37.73;15;37.73;15;;;OUTCROP;;;SUBAERIAL;VOLCANIC ROCK;BENMOREITE;;;;;QUATERNARY;;;;;;;MINERAL / COMPONENT (INCL. GROUNDMASS);PLAGIOCLASE;;;;PRIMARY;;;;;57.39;;;;;26.06;;;;;;;;;;0.61;;;8.9;;;;;;;;0.6;EMP (EPMA);;;5.86;;;;;;;;;;;;;;;;;;;;;;;;;;;;;;;;;;;;;;;;;;;;;;;;;;;;;;;;;;;;;;;;;;;;;;;;;;;;;;;;;;;;;;;;;;;;;;;;;;;;;;;;;;;;;;;;;;;;;;;;;;;;;;;;;;;;;;;;;;;;;;;;;;;;;;;;;;;;;;;;;;;;;;;;;;;;;;;;;;;;;;;;;;;;;;;;;;;;;;;;;;;;;;;;;;;;;;;;;;;;;;;;;;;;;;;;;;;;;;;;;;;;;;;;;;;;;;;;;;;;;;;;;;;;
1999;[10030] STIRLING D. (1999);samp. BENMOREITE;;ETNA/SICILY;;37.73;15;37.73;15;;;OUTCROP;;;SUBAERIAL;VOLCANIC ROCK;BENMOREITE;;;;;QUATERNARY;;;;;;;MINERAL / COMPONENT (INCL. GROUNDMASS);PLAGIOCLASE;;;CORE;PRIMARY;;;;;51.76;;;;;29.87;;;;;;;;;;0.66;;;13.2;;;;;;;;0.19;EMP (EPMA);;;3.86;;;;;;;;;;;;;;;;;;;;;;;;;;;;;;;;;;;;;;;;;;;;;;;;;;;;;;;;;;;;;;;;;;;;;;;;;;;;;;;;;;;;;;;;;;;;;;;;;;;;;;;;;;;;;;;;;;;;;;;;;;;;;;;;;;;;;;;;;;;;;;;;;;;;;;;;;;;;;;;;;;;;;;;;;;;;;;;;;;;;;;;;;;;;;;;;;;;;;;;;;;;;;;;;;;;;;;;;;;;;;;;;;;;;;;;;;;;;;;;;;;;;;;;;;;;;;;;;;;;;;;;;;;;;
1999;[10030] STIRLING D. (1999);samp. BENMOREITE;;ETNA/SICILY;;37.73;15;37.73;15;;;OUTCROP;;;SUBAERIAL;VOLCANIC ROCK;BENMOREITE;;;;;QUATERNARY;;;;;;;MINERAL / COMPONENT (INCL. GROUNDMASS);PLAGIOCLASE;;;RIM;PRIMARY;;;;;61.26;;;;;22.8;;;;;;;;;;0.07;;;5.32;;;;;;;;2.23;EMP (EPMA);;;6.7;;;;;;;;;;;;;;;;;;;;;;;;;;;;;;;;;;;;;;;;;;;;;;;;;;;;;;;;;;;;;;;;;;;;;;;;;;;;;;;;;;;;;;;;;;;;;;;;;;;;;;;;;;;;;;;;;;;;;;;;;;;;;;;;;;;;;;;;;;;;;;;;;;;;;;;;;;;;;;;;;;;;;;;;;;;;;;;;;;;;;;;;;;;;;;;;;;;;;;;;;;;;;;;;;;;;;;;;;;;;;;;;;;;;;;;;;;;;;;;;;;;;;;;;;;;;;;;;;;;;;;;;;;;;
2007;[10164] SHERROD D. R. (2007);samp. SO2-WM01 (MWM1);;HAWAIIAN ISLANDS / MAUI / WEST MAUI / POST-SHIELD STAGE / HONOLUA SERIES;;20.91;-156.59;20.91;-156.59;;;OUTCROP;;;SUBAERIAL;VOLCANIC ROCK;BENMOREITE;;;1260000;1260000;PLEISTOCENE;;;;;;;WHOLE ROCK;;;;;;;;;;59.02;1.15;;;;18.17;;;;;;;;;;6.21;;;3.28;1.68;0.25;;;;;;2.71;XRF;;;6.93;0.6;;;;;;;;;;;;;;;;;;;;;;;;;;;;;;;;;;;;;5;XRF;;;;18;XRF;;;0;XRF;;;;;;;6;XRF;;;2;XRF;;;150;XRF;;;20;XRF;;;;;;;48;XRF;;;;;1017;XRF;;;;;67;XRF;;;708;XRF;;;83.7;XRF;;;;;;;;;;;;;;;;;728;XRF;;;69;XRF;;;157;XRF;;;;;;;;;;;;;;;;;;;;;;;;;;;;;;;;;;;;;;;;;;;;;;;;;4;XRF;;;;;;6;XRF;;;;;;;;;;;;;;;;;;;;;;;;;;;;;;;;;;;;;;;;;;;;;;;;;;;;;;;;;;;;;;;;;;;;;;;;;;;;;;;;;;;;;;;;;
2007;[10164] SHERROD D. R. (2007);samp. SO2-WM05 (MWM3);;HAWAIIAN ISLANDS / MAUI / WEST MAUI / POST-SHIELD STAGE / HONOLUA SERIES;;20.91;-156.59;20.91;-156.59;;;OUTCROP;;;SUBAERIAL;VOLCANIC ROCK;BENMOREITE;;;1280000;1280000;PLEISTOCENE;;;;;;;WHOLE ROCK;;;;;;;;;;58.52;1.24;;;;18.32;;;;;;;;;;6.48;;;3.22;1.66;0.23;;;;;;2.7;XRF;;;6.95;0.67;;;;;;;;;;;;;;;;;;;;;;;;;;;;;;;;;;;;;6;XRF;;;;16;XRF;;;0;XRF;;;;;;;3;XRF;;;0;XRF;;;154;XRF;;;20;XRF;;;;;;;47;XRF;;;;;1046;XRF;;;;;51;XRF;;;700;XRF;;;82.6;XRF;;;;;;;;;;;;;;;;;700;XRF;;;63;XRF;;;158;XRF;;;;;;;;;;;;;;;;;;;;;;;;;;;;;;;;;;;;;;;;;;;;;;;;;6;XRF;;;;;;4;XRF;;;;;;;;;;;;;;;;;;;;;;;;;;;;;;;;;;;;;;;;;;;;;;;;;;;;;;;;;;;;;;;;;;;;;;;;;;;;;;;;;;;;;;;;;
2007;[10164] SHERROD D. R. (2007);samp. SO2-WM48 (MWM38);;HAWAIIAN ISLANDS / MAUI / WEST MAUI / POST-SHIELD STAGE / HONOLUA SERIES;;20.91;-156.59;20.91;-156.59;;;OUTCROP;;;SUBAERIAL;VOLCANIC ROCK;BENMOREITE;;;1380000;1380000;PLEISTOCENE;;;;;;;WHOLE ROCK;;;;;;;;;;59.05;1.25;;;;18.25;;;;;;;;;;6.21;;;3.42;1.58;0.25;;;;;;2.64;XRF;;;6.71;0.64;;;;;;;;;;;;;;;;;;;;;;;;;;;;;;;;;;;;;4;XRF;;;;12;XRF;;;0;XRF;;;;;;;4;XRF;;;2;XRF;;;152;XRF;;;21;XRF;;;;;;;42;XRF;;;;;1085;XRF;;;;;56;XRF;;;690;XRF;;;81.8;XRF;;;;;;;;;;;;;;;;;697;XRF;;;62;XRF;;;164;XRF;;;;;;;;;;;;;;;;;;;;;;;;;;;;;;;;;;;;;;;;;;;;;;;;;5;XRF;;;;;;7;XRF;;;;;;;;;;;;;;;;;;;;;;;;;;;;;;;;;;;;;;;;;;;;;;;;;;;;;;;;;;;;;;;;;;;;;;;;;;;;;;;;;;;;;;;;;
2007;[10164] SHERROD D. R. (2007);samp. SO2-WM01 (MWM1);;HAWAIIAN ISLANDS / MAUI / WEST MAUI / POST-SHIELD STAGE / HONOLUA SERIES;;20.91;-156.59;20.91;-156.59;;;OUTCROP;;;SUBAERIAL;VOLCANIC ROCK;BENMOREITE;;;1260000;1260000;PLEISTOCENE;;;;;;;MINERAL / COMPONENT (INCL. GROUNDMASS);GROUNDMASS;;;;PRIMARY;;;;;;;;;;;;;;;;;;;;;;;;;;;;;;;3.36;AES;;;;;;;;;;;;;;;;;;;;;;;;;;;;;;;1.1272E-07;MS;;;;;;;;;;;;;;;;;;;;;;;;;;;;;;;;;;;;;;;;;;;;;;;;;;;;;;;;;;;;;;;;;;;;;;;;;;;;;;;;;;;;;;;;;;;;;;;;;;;;;;;;;;;;;;;;;;;;;;;;;;;;;;;;;;;;;;;;;;;;;;;;;;;;;;;;;;;;;;;;;;;;;;;;;;;;;;;;;;;;;;;;;0.1839;661.4;;;;;;;;;;;;;;;;;;;;;;;;;;;;;;;;;;;;;;;;;;;;;1.04;K-AR;;;;;;;
2007;[10164] SHERROD D. R. (2007);samp. SO2-WM01 (MWM1);;HAWAIIAN ISLANDS / MAUI / WEST MAUI / POST-SHIELD STAGE / HONOLUA SERIES;;20.91;-156.59;20.91;-156.59;;;OUTCROP;;;SUBAERIAL;VOLCANIC ROCK;BENMOREITE;;;1260000;1260000;PLEISTOCENE;;;;;;;MINERAL / COMPONENT (INCL. GROUNDMASS);GROUNDMASS;;;;PRIMARY;;;;;;;;;;;;;;;;;;;;;;;;;;;;;;;2.59;AES;;;;;;;;;;;;;;;;;;;;;;;;;;;;;;;1.0347E-07;MS;;;;;;;;;;;;;;;;;;;;;;;;;;;;;;;;;;;;;;;;;;;;;;;;;;;;;;;;;;;;;;;;;;;;;;;;;;;;;;;;;;;;;;;;;;;;;;;;;;;;;;;;;;;;;;;;;;;;;;;;;;;;;;;;;;;;;;;;;;;;;;;;;;;;;;;;;;;;;;;;;;;;;;;;;;;;;;;;;;;;;;;;;0.1878;758.1;;;;;;;;;;;;;;;;;;;;;;;;;;;;;;;;;;;;;;;;;;;;;1.24;K-AR;;;;;;;
2007;[10164] SHERROD D. R. (2007);samp. SO2-WM01 (MWM1);;HAWAIIAN ISLANDS / MAUI / WEST MAUI / POST-SHIELD STAGE / HONOLUA SERIES;;20.91;-156.59;20.91;-156.59;;;OUTCROP;;;SUBAERIAL;VOLCANIC ROCK;BENMOREITE;;;1260000;1260000;PLEISTOCENE;;;;;;;MINERAL / COMPONENT (INCL. GROUNDMASS);GROUNDMASS;;;;PRIMARY;;;;;;;;;;;;;;;;;;;;;;;;;;;;;;;2.65;AES;;;;;;;;;;;;;;;;;;;;;;;;;;;;;;;1.0866E-07;MS;;;;;;;;;;;;;;;;;;;;;;;;;;;;;;;;;;;;;;;;;;;;;;;;;;;;;;;;;;;;;;;;;;;;;;;;;;;;;;;;;;;;;;;;;;;;;;;;;;;;;;;;;;;;;;;;;;;;;;;;;;;;;;;;;;;;;;;;;;;;;;;;;;;;;;;;;;;;;;;;;;;;;;;;;;;;;;;;;;;;;;;;;0.1855;622.9;;;;;;;;;;;;;;;;;;;;;;;;;;;;;;;;;;;;;;;;;;;;;1.27;K-AR;;;;;;;
2007;[10164] SHERROD D. R. (2007);samp. SO2-WM05 (MWM3);;HAWAIIAN ISLANDS / MAUI / WEST MAUI / POST-SHIELD STAGE / HONOLUA SERIES;;20.91;-156.59;20.91;-156.59;;;OUTCROP;;;SUBAERIAL;VOLCANIC ROCK;BENMOREITE;;;1280000;1280000;PLEISTOCENE;;;;;;;MINERAL / COMPONENT (INCL. GROUNDMASS);GROUNDMASS;;;;PRIMARY;;;;;;;;;;;;;;;;;;;;;;;;;;;;;;;2.64;AES;;;;;;;;;;;;;;;;;;;;;;;;;;;;;;;1.0902E-07;MS;;;;;;;;;;;;;;;;;;;;;;;;;;;;;;;;;;;;;;;;;;;;;;;;;;;;;;;;;;;;;;;;;;;;;;;;;;;;;;;;;;;;;;;;;;;;;;;;;;;;;;;;;;;;;;;;;;;;;;;;;;;;;;;;;;;;;;;;;;;;;;;;;;;;;;;;;;;;;;;;;;;;;;;;;;;;;;;;;;;;;;;;;0.1865;633.4;;;;;;;;;;;;;;;;;;;;;;;;;;;;;;;;;;;;;;;;;;;;;1.28;K-AR;;;;;;;
2007;[10164] SHERROD D. R. (2007);samp. SO2-WM48 (MWM38);;HAWAIIAN ISLANDS / MAUI / WEST MAUI / POST-SHIELD STAGE / HONOLUA SERIES;;20.91;-156.59;20.91;-156.59;;;OUTCROP;;;SUBAERIAL;VOLCANIC ROCK;BENMOREITE;;;1380000;1380000;PLEISTOCENE;;;;;;;MINERAL / COMPONENT (INCL. GROUNDMASS);GROUNDMASS;;;;PRIMARY;;;;;;;;;;;;;;;;;;;;;;;;;;;;;;;1.28;AES;;;;;;;;;;;;;;;;;;;;;;;;;;;;;;;5.684E-08;MS;;;;;;;;;;;;;;;;;;;;;;;;;;;;;;;;;;;;;;;;;;;;;;;;;;;;;;;;;;;;;;;;;;;;;;;;;;;;;;;;;;;;;;;;;;;;;;;;;;;;;;;;;;;;;;;;;;;;;;;;;;;;;;;;;;;;;;;;;;;;;;;;;;;;;;;;;;;;;;;;;;;;;;;;;;;;;;;;;;;;;;;;;0.1869;460;;;;;;;;;;;;;;;;;;;;;;;;;;;;;;;;;;;;;;;;;;;;;1.38;K-AR;;;;;;;
1985;[10225] MORRIS P. A. (1985);samp. 14397;;NEW ZEALAND / SOUTH ISLAND / CHATHAM PROVINCE;SOUTHERN VOLCANICS (SOUTHERN CHATHAM AND PITT ISLANDS);-44;-176.35;-44.12;-176.67;;;OUTCROP;;;SUBAERIAL;VOLCANIC ROCK;BENMOREITE;;;;;;;;;;;;WHOLE ROCK;;;;;;;;;;56.09;1.76;;;;19.2;;;;;;;;;0.8;;7.27;;4.17;1.25;0.07;;;;;;3.52;XRF;;;5.32;0.55;;;;;;;;;;;;3.44;;;1.14;;;;;;;;;;;;2.19E-08;MS_ID;;;;;;;;;;;;;;56;XRF;;;15;XRF;;;;;;;26;XRF;;;;;;;;;;;;;;;;;;;65;XRF;;;;;794;XRF;;;;;40;XRF;;;659;XRF;;;103;XRF;;;;;;;;;;;;;;;;;685;XRF;;;;;;;;;;;;;;;;;;;;;;;;;;;;;;;;;;;;;;;;;;;;;;;;;;;;;;;;;;;;;;;;17;XRF;;;;;;;;;;;;;;;;;;;;;;;;;;;;;;;;;;;;;;;;;;;;;;;;;;;;;;;;;;;;;;;;;;;;;;;;;;;;;;;;;0.5;K-AR;;;;;;;
1985;[10225] MORRIS P. A. (1985);samp. 14404;;NEW ZEALAND / SOUTH ISLAND / CHATHAM PROVINCE;SOUTHERN VOLCANICS (SOUTHERN CHATHAM AND PITT ISLANDS);-44;-176.35;-44.12;-176.67;;;OUTCROP;;;SUBAERIAL;VOLCANIC ROCK;BENMOREITE;;;;;;;;;;;;WHOLE ROCK;;;;;;;;;;60.79;1.9;;;;17.84;;;;;;;;;1.08;;5.42;;2.81;0.64;0.05;;;;;;3.19;XRF;;;5.49;0.78;;;;;;;;;;;;3.55;;;0.59;;;;;;;;;;;;4.82E-08;MS_ID;;;;;;;;;;;;;;63;XRF;;;0;XRF;;;;;;;24;XRF;;;;;;;;;;;;;;;;;;;38;XRF;;;;;452;XRF;;;;;16;XRF;;;647;XRF;;;91;XRF;;;;;;;;;;;;;;;;;504;XRF;;;58;MS;;;115;MS;;;14.4;57;MS;;;;;11.2;MS;;;4.8;MS;;;10;MS;;;1.3;MS;;;6.8;MS;;;1.5;3.5;MS;;;;3.2;MS;;;;;;;;;;;;;;;;;;;11;XRF;;;;;;;;;;;;;;;;;;;;;;;;;;;;;;;;;;;;;;;;;;;;;;;;;;;;;;;;;;;;;;;;;;;;;;;;;;;;;;;;;2.11;K-AR;;;;;;;
1996;[10243] ROSSI P. L. (1996);samp. 114BLIN;;SICILY CHANNEL RIFT / LINOSA / PALEO-LINOSA VOLCANIC ROCKS;CALA POZZOLANA DI LEVANTE;35.87;12.87;35.87;12.87;;;OUTCROP;;;SUBAERIAL;VOLCANIC ROCK;BENMOREITE;;LITHIC;530000;1060000;PLEISTOCENE;;;;;;;WHOLE ROCK;;;;;;;;;;55.95;0.96;;;;16.56;;;;;;;;;1.34;;8.92;;3.06;1.68;0.11;;;;;;3.4;NOT;;;5.68;0.31;;2.03;;;;;;;;;;;;;;;;;;;;;;;;;;;;;;;;;;;4;NOT;;;;97;NOT;;;3;NOT;;;7;NOT;;;7;NOT;;;;;;;;;;;;;;;;;;;42;NOT;;;;;363;NOT;;;;;35;NOT;;;289;NOT;;;50;NOT;;;;;;;;;;;;;;;;;1016;NOT;;;38;NOT;;;83;NOT;;;;;;;;;;;;;;;;;;;;;;;;;;;;;;;;;;;;;;;;;;;;;;;;;;;;;;;;;;;;;;;;;;;;;;;;;;;;;;;;;;;;;;;;;;;;;;;;;;;;;;;;;;;;;;;;;;;;;;;;;;;;;;;;;;;;;;;;;;;;;;;;;;
1997;[10245] D^ORAZIO M. (1997);samp. VBN-6;;ETNA/SICILY / VALLE DEL BOVE VOLCANIC SUCCESSION;ROCCA CAPRA LITHOSOME;37.73;15;37.73;15;;;OUTCROP;;;SUBAERIAL;VOLCANIC ROCK;BENMOREITE;;ROCCA PALOMBE UNIT;78000;81000;PLEISTOCENE;;;;;;;WHOLE ROCK;;;;;;;;;;58;0.92;;;;17.66;;;;;;;;;2.04;;3.98;;4.96;1.97;0.16;;;;;;2.24;XRF;;;4.86;0.33;;;;;;;;;;;;2.86;;;;;;;;;;;;;;;;;;;;;;;;;;;;;;84;XRF;;;11;XRF;;;17;XRF;;;7;XRF;;;;;;;;;;;;;;;;;;;59;XRF;;;;;997;XRF;;;;;20;XRF;;;279;XRF;;;79;XRF;;;;;;;;;;;;;;;;;818;XRF;;;;;;;;;;;;;;;;;;;;;;;;;;;;;;;;;;;;;;;;;;;;;;;;;;;;;;;;;;;;;;;;;;;;;;;;;;;;;;;;;;;;;;;;;;;;;;;;;;;;;;;;;;;;;;;;;;;;;;;;;;;;;;;;;;;;;;;;;;;;;;;;;;;;;;;;;;
1997;[10245] D^ORAZIO M. (1997);samp. VBE-9;194760;ETNA/SICILY / VALLE DEL BOVE VOLCANIC SUCCESSION;ELLITICO VOLCANO;37.73;15;37.73;15;;;OUTCROP;;;SUBAERIAL;VOLCANIC ROCK;BENMOREITE;;PORTELLA GIUMENTA UNIT;14000;16000;PLEISTOCENE;;;;;;;WHOLE ROCK;;;;;;;;;;57.66;1.18;;;;18.36;;;;;;;;;1.27;;4.13;;4.12;2.04;0.16;;;;;;3.22;XRF;;;6.64;0.5;;;;;;;;;;;;0.72;;;;;;;;;;;;;;;;;;;;;;;;;;;;;;108;XRF;;;8;XRF;;;14;XRF;;;3;XRF;;;;;;;;;;;;;;;;;;;60;XRF;;;;;1041;XRF;;;;;26;XRF;;;333;XRF;;;94;XRF;;;;;;;;;;;;;1.75;ICPMS;;;1372;XRF;;;125;ICPMS;;;223;ICPMS;;;23.4;82;ICPMS;;;;;12.3;ICPMS;;;3.46;ICPMS;;;9.6;ICPMS;;;1.15;ICPMS;;;6.39;ICPMS;;;1.09;3.19;ICPMS;;;0.5;3.12;ICPMS;;;0.45;7.4;5.8;;;;;;;13.3;ICPMS;;;;;;19.4;ICPMS;;;4.9;ICPMS;;;0.512887;;;;;0.703409;;;;;;;;;;;;;;;;;;;;;;;;;;;;;;;;;;;;;;;;;;;;;;;;;;;;;;;;;;;;;;;;;;;;;;;;;;;;;
1997;[10245] D^ORAZIO M. (1997);samp. VBE-34;194765;ETNA/SICILY / VALLE DEL BOVE VOLCANIC SUCCESSION;ELLITICO VOLCANO;37.73;15;37.73;15;;;OUTCROP;;;SUBAERIAL;VOLCANIC ROCK;BENMOREITE;;PORTELLA GIUMENTA UNIT;14000;16000;PLEISTOCENE;;;;;;;WHOLE ROCK;;;;;;;;;;59.35;1.47;;;;16.93;;;;;;;;;2.58;;3.72;;3.64;1.79;0.19;;;;;;2.85;XRF;;;5.31;0.44;;;;;;;;;;;;1.72;;;;;;;;;;;;;;;;;;;;;;;;;12;ICPMS;;;;90;XRF;;;6;XRF;;;12;XRF;;;3;XRF;;;22;ICPMS;;;;;;;;;;;;;;;65;XRF;;;;;870;XRF;;;;;32;XRF;;;422;XRF;;;104;XRF;;;;;;;;;;;;;2.18;ICPMS;;;1296;XRF;;;118;ICPMS;;;240;ICPMS;;;24.3;84;ICPMS;;;;;14.1;ICPMS;;;3.43;ICPMS;;;9.3;ICPMS;;;1.43;ICPMS;;;7.75;ICPMS;;;1.46;3.65;ICPMS;;;0.49;3.23;ICPMS;;;0.45;9.1;5.4;;;;;;;21.3;ICPMS;;;;;;20.8;ICPMS;;;5.6;ICPMS;;;0.512854;;;;;0.703471;;;;;;;;;;;;;;;;;;;;;;;;;;;;;;;;;;;;;;;;;;;;;;;;;;;;;;;;;;;;;;;;;;;;;;;;;;;;;
1997;[10245] D^ORAZIO M. (1997);samp. VBE-65;;ETNA/SICILY / VALLE DEL BOVE VOLCANIC SUCCESSION;ELLITICO VOLCANO;37.73;15;37.73;15;;;OUTCROP;;;SUBAERIAL;VOLCANIC ROCK;BENMOREITE;;PORTELLA GIUMENTA UNIT;14000;16000;PLEISTOCENE;;;;;;;WHOLE ROCK;;;;;;;;;;53.66;1.3;;;;17.89;;;;;;;;;2.39;;5.42;;6.04;3.05;0.17;;;;;;2.63;XRF;;;5.6;0.8;;;;;;;;;;;;0.82;;;;;;;;;;;;;;;;;;;;;;;;;;;;;;188;XRF;;;9;XRF;;;26;XRF;;;6;XRF;;;;;;;;;;;;;;;;;;;56;XRF;;;;;1060;XRF;;;;;27;XRF;;;295;XRF;;;91;XRF;;;;;;;;;;;;;;;;;1256;XRF;;;;;;;;;;;;;;;;;;;;;;;;;;;;;;;;;;;;;;;;;;;;;;;;;;;;;;;;;;;;;;;;;;;;;;;;;;;;;;;;;;;;;;;;;;;;;;;;;;;;;;;;;;;;;;;;;;;;;;;;;;;;;;;;;;;;;;;;;;;;;;;;;;;;;;;;;;
1997;[10245] D^ORAZIO M. (1997);samp. VBE-66;203116;ETNA/SICILY / VALLE DEL BOVE VOLCANIC SUCCESSION;ELLITICO VOLCANO;37.73;15;37.73;15;;;OUTCROP;;;SUBAERIAL;VOLCANIC ROCK;BENMOREITE;;PORTELLA GIUMENTA UNIT;14000;16000;PLEISTOCENE;;;;;;;WHOLE ROCK;;;;;;;;;;58.07;1.25;;;;18.22;;;;;;;;;1.8;;3.87;;4.02;2.08;0.16;;;;;;3.12;XRF;;;6.38;0.45;;;;;;;;;;;;0.58;;;;;;;;;;;;;;;;;;;;;;;;;9;ICPMS;;;;117;XRF;;;6;XRF;;;14;XRF;;;3;XRF;;;25;ICPMS;;;;;;;;;;;;;;;63;XRF;;;;;1045;XRF;;;;;27;XRF;;;341;XRF;;;101;XRF;;;;;;;;;;;;;1.6;ICPMS;;;1390;XRF;;;124;ICPMS;;;223;ICPMS;;;23;83;ICPMS;;;;;12.9;ICPMS;;;3.23;ICPMS;;;9.1;ICPMS;;;1.29;ICPMS;;;6.56;ICPMS;;;1.18;3.08;ICPMS;;;0.43;2.8;ICPMS;;;0.43;7.4;5.1;;;;;;;24.2;ICPMS;;;;;;22;ICPMS;;;6.1;ICPMS;;;;;;;;;;;;;;;;;;;;;;;;;;;;;;;;;;;;;;;;;;;;;;;;;;;;;;;;;;;;;;;;;;;;;;;;;;;;;;;;;;;;;
1997;[10245] D^ORAZIO M. (1997);samp. VBE-74;;ETNA/SICILY / VALLE DEL BOVE VOLCANIC SUCCESSION;ELLITICO VOLCANO;37.73;15;37.73;15;;;OUTCROP;;;SUBAERIAL;VOLCANIC ROCK;BENMOREITE;;PORTELLA GIUMENTA UNIT;14000;16000;PLEISTOCENE;;;;;;;WHOLE ROCK;;;;;;;;;;54.13;1.35;;;;18.74;;;;;;;;;1.38;;5.37;;6.06;3.02;0.14;;;;;;2.92;XRF;;;5.37;0.96;;;;;;;;;;;;0.57;;;;;;;;;;;;;;;;;;;;;;;;;;;;;;170;XRF;;;8;XRF;;;22;XRF;;;5;XRF;;;;;;;;;;;;;;;;;;;53;XRF;;;;;1093;XRF;;;;;26;XRF;;;271;XRF;;;75;XRF;;;;;;;;;;;;;;;;;1191;XRF;;;;;;;;;;;;;;;;;;;;;;;;;;;;;;;;;;;;;;;;;;;;;;;;;;;;;;;;;;;;;;;;;;;;;;;;;;;;;;;;;;;;;;;;;;;;;;;;;;;;;;;;;;;;;;;;;;;;;;;;;;;;;;;;;;;;;;;;;;;;;;;;;;;;;;;;;;
1997;[10245] D^ORAZIO M. (1997);samp. VBE-75;;ETNA/SICILY / VALLE DEL BOVE VOLCANIC SUCCESSION;ELLITICO VOLCANO;37.73;15;37.73;15;;;OUTCROP;;;SUBAERIAL;VOLCANIC ROCK;BENMOREITE;;PORTELLA GIUMENTA UNIT;14000;16000;PLEISTOCENE;;;;;;;WHOLE ROCK;;;;;;;;;;54.44;1.63;;;;17.66;;;;;;;;;1.99;;5.88;;5.73;2.77;0.2;;;;;;2.49;XRF;;;5.8;0.8;;;;;;;;;;;;0.62;;;;;;;;;;;;;;;;;;;;;;;;;;;;;;172;XRF;;;10;XRF;;;24;XRF;;;3;XRF;;;;;;;;;;;;;;;;;;;49;XRF;;;;;1134;XRF;;;;;30;XRF;;;314;XRF;;;85;XRF;;;;;;;;;;;;;;;;;1278;XRF;;;;;;;;;;;;;;;;;;;;;;;;;;;;;;;;;;;;;;;;;;;;;;;;;;;;;;;;;;;;;;;;;;;;;;;;;;;;;;;;;;;;;;;;;;;;;;;;;;;;;;;;;;;;;;;;;;;;;;;;;;;;;;;;;;;;;;;;;;;;;;;;;;;;;;;;;;
1997;[10245] D^ORAZIO M. (1997);samp. VBE-35;;ETNA/SICILY / VALLE DEL BOVE VOLCANIC SUCCESSION;IL PIANO LITHOSOME;37.73;15;37.73;15;;;OUTCROP;;;SUBAERIAL;VOLCANIC ROCK;BENMOREITE;;PIANO DELLA CONCAZZE UNIT;0;14000;QUATERNARY;;;;;;;WHOLE ROCK;;;;;;;;;;55.95;1.49;;;;17.69;;;;;;;;;4.86;;2.48;;5.49;2.54;0.17;;;;;;2.68;XRF;;;5.58;0.81;;;;;;;;;;;;0.26;;;;;;;;;;;;;;;;;;;;;;;;;14;ICPMS;;;;156;XRF;;;7;XRF;;;20;XRF;;;3;XRF;;;32;ICPMS;;;;;;;;;;;;;;;49;XRF;;;;;1120;XRF;;;;;27;XRF;;;309;XRF;;;87;XRF;;;;;;;;;;;;;0.38;ICPMS;;;1271;XRF;;;120;ICPMS;;;236;ICPMS;;;24.3;88;ICPMS;;;;;14;ICPMS;;;3.63;ICPMS;;;9.6;ICPMS;;;1.43;ICPMS;;;7.36;ICPMS;;;1.31;3.48;ICPMS;;;0.47;3.01;ICPMS;;;0.42;7.2;4.9;;;;;;;10.5;ICPMS;;;;;;18.8;ICPMS;;;5.2;ICPMS;;;;;;;;;;;;;;;;;;;;;;;;;;;;;;;;;;;;;;;;;;;;;;;;;;;;;;;;;;;;;;;;;;;;;;;;;;;;;;;;;;;;;
1997;[10245] D^ORAZIO M. (1997);samp. VBE-71;203122;ETNA/SICILY / VALLE DEL BOVE VOLCANIC SUCCESSION;ELLITICO VOLCANO;37.73;15;37.73;15;;;OUTCROP;;;SUBAERIAL;VOLCANIC ROCK;BENMOREITE;HIGHLY PORPHYRITIC PLAGIOPHYRIC;PIANO DELLA CONCAZZE UNIT;0;14000;QUATERNARY;;;;;;;WHOLE ROCK;;;;;;;;;;54.4;1.58;;;;17.89;;;;;;;;;1.3;;6.45;;5.54;2.84;0.18;;;;;;2.69;XRF;;;5.73;0.81;;;;;;;;;;;;0.58;;;;;;;;;;;;;;;;;;;;;;;;;13;ICPMS;;;;187;XRF;;;9;XRF;;;24;XRF;;;2;XRF;;;45;ICPMS;;;;;;;;;;;;;;;53;XRF;;;;;1101;XRF;;;;;28;XRF;;;308;XRF;;;97;XRF;;;;;;;;;;;;;1.21;ICPMS;;;1315;XRF;;;126;ICPMS;;;233;ICPMS;;;24.6;90;ICPMS;;;;;14.7;ICPMS;;;3.78;ICPMS;;;11;ICPMS;;;1.52;ICPMS;;;7.53;ICPMS;;;1.39;3.43;ICPMS;;;0.48;3.05;ICPMS;;;0.43;6.8;5.1;;;;;;;12.7;ICPMS;;;;;;20.2;ICPMS;;;5.6;ICPMS;;;;;;;;;;;;;;;;;;;;;;;;;;;;;;;;;;;;;;;;;;;;;;;;;;;;;;;;;;;;;;;;;;;;;;;;;;;;;;;;;;;;;
1997;[10245] D^ORAZIO M. (1997);samp. VBE-34;194765;ETNA/SICILY / VALLE DEL BOVE VOLCANIC SUCCESSION;ELLITICO VOLCANO;37.73;15;37.73;15;;;OUTCROP;;;SUBAERIAL;VOLCANIC ROCK;BENMOREITE;;PORTELLA GIUMENTA UNIT;14000;16000;PLEISTOCENE;;;;;;;MINERAL / COMPONENT (INCL. GROUNDMASS);CLINOPYROXENE;;;;PRIMARY;;;;;49.95;1.9;;;;3.6;;;;;;;;;;8.84;;;19.29;14.03;0.4;;;;;;;;;;0.59;;;;;;;;;;;;;;;;;;;;;;;;;;;;;;;;;;;;;;;;;;;;;;;;;;;;;;;;;;;;;;;;;;;;;;;;;;;;;;;;;;;;;;;;;;;;;;;;;;;;;;;;;;;;;;;;;;;;;;;;;;;;;;;;;;;;;;;;;;;;;;;;;;;;;;;;;;;;;;;;;;;;;;;;;;;;;;;;;;;;;;;;;;;;;;;;;;;;;;;;;;;;;;;;;;;;;;;;;;;;;;;;;;;;;;;;;;;;;;42.4;;;15.7;;;;;;;;;;;;41.9;;;;;;;;;;;;;;;