Year;CITATION;SAMPLE NAME;UNIQUE_ID;LOCATION;LOCATION COMMENT;LATITUDE (MIN.);LONGITUDE (MIN.);LATITUDE (MAX.);LONGITUDE (MAX.);ELEVATION (MIN.);ELEVATION (MAX.);SAMPLING TECHNIQUE;DRILLING DEPTH (MIN.);DRILLING DEPTH (MAX.);LAND/SEA (SAMPLING);ROCK TYPE;ROCK NAME;ROCK TEXTURE;SAMPLE COMMENT;AGE (MIN.);AGE (MAX.);GEOLOGICAL AGE;GEOLOGICAL AGE PREFIX;ERUPTION DAY;ERUPTION MONTH;ERUPTION YEAR;ALTERATION;ALTERATION TYPE;TYPE OF MATERIAL;MINERAL / COMPONENT;SPOT (MINERAL);CRYSTAL;RIM / CORE (MINERAL GRAINS);PRIMARY/SECONDARY;INCLUSION TYPE;MINERAL (INCLUSION);HOSTMINERAL (INCLUSION);HEATING;SIO2(WT%);TIO2(WT%);ZRO2(WT%);HFO2(WT%);THO2(WT%);AL2O3(WT%);CR2O3(WT%);LA2O3(WT%);CE2O3(WT%);ND2O3(WT%);SM2O3(WT%);V2O3(WT%);NB2O5(WT%);FE2O3T(WT%);FE2O3(WT%);FEOT(WT%);FEO(WT%);FET(WT%);CAO(WT%);MGO(WT%);MNO(WT%);BAO(WT%);SRO(WT%);NIO(WT%);ZNO(WT%);RB2O(WT%);K2O(WT%);;;;NA2O(WT%);P2O5(WT%);AS2O5(WT%);H2O(WT%);H2OP(WT%);H2OM(WT%);CO2(WT%);C(WT%);F(WT%);CL(WT%);OH(WT%);SO3(WT%);S(WT%);LOI(WT%);TI(WT%);CA(WT%);K(WT%);LI(PPM);BE(PPM);B(PPM);F(PPM);P(PPM);S(PPM);CL(PPM);AR40(AT/G);;;;AR40(CCMSTP/G);;;;AR40(MOL/G);;;;AR40(PPB);K(PPM);SC(PPM);;;;TI(PPM);V(PPM);;;;CR(PPM);;;;CO(PPM);;;;NI(PPM);;;;CU(PPM);;;;ZN(PPM);;;;GA(PPM);;;;GE(PPM);AS(PPM);AS(PPB);SE(PPM);RB(PPM);;;;;;SR(PPM);;;;;;Y(PPM);;;;ZR(PPM);;;;NB(PPM);;;;MO(PPM);AG(PPM);CD(PPM);IN(PPM);SN(PPM);SB(PPM): altern. values or methods;;;;TE(PPM);CS(PPM): altern. values or methods;;;;BA(PPM): altern. values or methods;;;;LA(PPM): altern. values or methods;;;;CE(PPM): altern. values or methods;;;;PR(PPM);ND(PPM): altern. values or methods;;;;;;SM(PPM): altern. values or methods;;;;EU(PPM): altern. values or methods;;;;GD(PPM): altern. values or methods;;;;TB(PPM): altern. values or methods;;;;DY(PPM): altern. values or methods;;;;HO(PPM);ER(PPM): altern. values or methods;;;;TM(PPM);YB(PPM): altern. values or methods;;;;LU(PPM);HF(PPM);TA(PPM);W(PPM);RE(PPM);AU(PPM);HG(PPM);HG(PPB);TL(PPM);PB(PPM): altern. values or methods;;;;BI(PPM);PO210_ACT(DPM/G);RA226_ACT(DPM/G);TH(PPM): altern. values or methods;;;;U(PPM): altern. values or methods;;;;ND143_ND144;ND143_ND144_INI;EPSILON_ND;EPSILON_ND_INI;SM147_ND144;SR87_SR86;SR87_SR86_INI;EPSILON_SR_INI;RB87_SR86;PB206_PB204: altern. values or methods;;;;PB206_PB204_INI;PB207_PB204: altern. values or methods;;;;PB207_PB204_INI;PB207_PB206;PB208_PB204: altern. values or methods;;;;PB208_PB204_INI;PB208_PB206;HF176_HF177;LU176_HF177;AR38_AR36;AR40_AR36;AR40_AR36_INI;PB206_U238;PB207_U235;RA226_TH230_ACT;PA231_U235_ACT;TH230_TH232_ACT;TH230_U238_ACT;TH232_PB204;U234_U238_ACT;U235_PB204;U238_PB204;U238_TH232_ACT;D7LI(VS LSVEC);D13C(VS PDB);D18O(PER MIL);D18O(VS SMOW);D18O(VS VSMOW);D34S(VS VCDT);ALBITE(MOL%);ANORTHITE(MOL%);CA OLIVINE(MOL%);CHROMITE(MOL%);ENSTATITE(MOL%);FAYALITE(MOL%);FORSTERITE(MOL%);FERROSILITE(MOL%);HEMATITE(MOL%);HERCYNITE(MOL%);ILMENITE(MOL%);MAGNESIOFERRITE(MOL%);MONTICELLITE(MOL%);MAGNETITE(MOL%);ORTHOCLASE(MOL%);PICROCHROMITE(MOL%);SPINEL(MOL%);TEPHROITE(MOL%);ULVOSPINEL(MOL%);WOLLASTONITE(MOL%);AGE(KA): altern. values or methods;;;;;;AGE(MA): altern. values or methods;;;;;;AGE_PB207_U235(MA);AGE_PB206_U238(MA);
2011;[15668] MADUREIRA P.(2011)  [GeoReM [6330] ];samp. PMT-83;;AZORES / TERCEIRA / SANTA BARBARA;;38.72;-27.22;38.72;-27.22;;;OUTCROP;;;SUBAERIAL;VOLCANIC ROCK;BENMOREITE;;;0;100000;QUATERNARY;;;;;;;MINERAL / COMPONENT (INCL. GROUNDMASS);OLIVINE;;PHENOCRYST;CORE;PRIMARY;;;;;35.76;0.01;;;;0;;;;;;;;;;36.07;;;0.19;25.62;1.16;;;0;;;;;;;;;;;;;;;;;;;;;;;;;;;;;;;;;;;;;;;;;;;;;;;;;;;;;;;;;;;;;;;;;;;;;;;;;;;;;;;;;;;;;;;;;;;;;;;;;;;;;;;;;;;;;;;;;;;;;;;;;;;;;;;;;;;;;;;;;;;;;;;;;;;;;;;;;;;;;;;;;;;;;;;;;;;;;;;;;;;;;;;;;;;;;;;;;;;;;;;;;;;;;;;;;;;;;;;;;;;;;;;;;;;;;;;;;;;;;;;;;;;;;;44.1;55.9;;;;;;;;;;;;;;;;;;;;;;;;;;;;
2011;[15668] MADUREIRA P.(2011)  [GeoReM [6330] ];samp. PMT-83;;AZORES / TERCEIRA / SANTA BARBARA;;38.72;-27.22;38.72;-27.22;;;OUTCROP;;;SUBAERIAL;VOLCANIC ROCK;BENMOREITE;;;0;100000;QUATERNARY;;;;;;;MINERAL / COMPONENT (INCL. GROUNDMASS);CLINOPYROXENE;;PHENOCRYST;CORE;PRIMARY;;;;;52.09;0.98;;;;2.08;0;;;;;;;;0;;8.42;;20.43;14.43;0.29;;;;;;0.01;EMP (EPMA);;;0.42;;;;;;;;;;;;;;;;;;;;;;;;;;;;;;;;;;;;;;;;;;;;;;;;;;;;;;;;;;;;;;;;;;;;;;;;;;;;;;;;;;;;;;;;;;;;;;;;;;;;;;;;;;;;;;;;;;;;;;;;;;;;;;;;;;;;;;;;;;;;;;;;;;;;;;;;;;;;;;;;;;;;;;;;;;;;;;;;;;;;;;;;;;;;;;;;;;;;;;;;;;;;;;;;;;;;;;;;;;;;;;;;;;;;;;;;;;;;;;42.6;;;14;;;;;;;;;;;;43.4;;;;;;;;;;;;;;;
2011;[15668] MADUREIRA P.(2011)  [GeoReM [6330] ];samp. PMT-83;;AZORES / TERCEIRA / SANTA BARBARA;;38.72;-27.22;38.72;-27.22;;;OUTCROP;;;SUBAERIAL;VOLCANIC ROCK;BENMOREITE;;;0;100000;QUATERNARY;;;;;;;MINERAL / COMPONENT (INCL. GROUNDMASS);CLINOPYROXENE;;PHENOCRYST;RIM;PRIMARY;;;;;52.35;0.97;;;;2.23;0;;;;;;;;0;;8.48;;20.58;14.77;0.32;;;;;;0.01;EMP (EPMA);;;0.42;;;;;;;;;;;;;;;;;;;;;;;;;;;;;;;;;;;;;;;;;;;;;;;;;;;;;;;;;;;;;;;;;;;;;;;;;;;;;;;;;;;;;;;;;;;;;;;;;;;;;;;;;;;;;;;;;;;;;;;;;;;;;;;;;;;;;;;;;;;;;;;;;;;;;;;;;;;;;;;;;;;;;;;;;;;;;;;;;;;;;;;;;;;;;;;;;;;;;;;;;;;;;;;;;;;;;;;;;;;;;;;;;;;;;;;;;;;;;;43;;;13.9;;;;;;;;;;;;43.1;;;;;;;;;;;;;;;
2011;[15668] MADUREIRA P.(2011)  [GeoReM [6330] ];samp. PMT-83;;AZORES / TERCEIRA / SANTA BARBARA;;38.72;-27.22;38.72;-27.22;;;OUTCROP;;;SUBAERIAL;VOLCANIC ROCK;BENMOREITE;;;0;100000;QUATERNARY;;;;;;;MINERAL / COMPONENT (INCL. GROUNDMASS);CLINOPYROXENE;;PHENOCRYST;CORE;PRIMARY;;;;;52.37;0.52;;;;1.08;0.02;;;;;;;;0;;12.51;;19.63;12.35;0.68;;;;;;0;EMP (EPMA);;;0.33;;;;;;;;;;;;;;;;;;;;;;;;;;;;;;;;;;;;;;;;;;;;;;;;;;;;;;;;;;;;;;;;;;;;;;;;;;;;;;;;;;;;;;;;;;;;;;;;;;;;;;;;;;;;;;;;;;;;;;;;;;;;;;;;;;;;;;;;;;;;;;;;;;;;;;;;;;;;;;;;;;;;;;;;;;;;;;;;;;;;;;;;;;;;;;;;;;;;;;;;;;;;;;;;;;;;;;;;;;;;;;;;;;;;;;;;;;;;;;36.9;;;21;;;;;;;;;;;;42.1;;;;;;;;;;;;;;;
2011;[15668] MADUREIRA P.(2011)  [GeoReM [6330] ];samp. PMT-83;;AZORES / TERCEIRA / SANTA BARBARA;;38.72;-27.22;38.72;-27.22;;;OUTCROP;;;SUBAERIAL;VOLCANIC ROCK;BENMOREITE;;;0;100000;QUATERNARY;;;;;;;MINERAL / COMPONENT (INCL. GROUNDMASS);CLINOPYROXENE;;PHENOCRYST;RIM;PRIMARY;;;;;51.64;1.07;;;;2.45;0.02;;;;;;;;0;;9.46;;20.28;13.6;0.4;;;;;;0.01;EMP (EPMA);;;0.48;;;;;;;;;;;;;;;;;;;;;;;;;;;;;;;;;;;;;;;;;;;;;;;;;;;;;;;;;;;;;;;;;;;;;;;;;;;;;;;;;;;;;;;;;;;;;;;;;;;;;;;;;;;;;;;;;;;;;;;;;;;;;;;;;;;;;;;;;;;;;;;;;;;;;;;;;;;;;;;;;;;;;;;;;;;;;;;;;;;;;;;;;;;;;;;;;;;;;;;;;;;;;;;;;;;;;;;;;;;;;;;;;;;;;;;;;;;;;;40.6;;;15.8;;;;;;;;;;;;43.5;;;;;;;;;;;;;;;
2011;[15668] MADUREIRA P.(2011)  [GeoReM [6330] ];samp. PMT-83;;AZORES / TERCEIRA / SANTA BARBARA;;38.72;-27.22;38.72;-27.22;;;OUTCROP;;;SUBAERIAL;VOLCANIC ROCK;BENMOREITE;;;0;100000;QUATERNARY;;;;;;;MINERAL / COMPONENT (INCL. GROUNDMASS);PLAGIOCLASE;;PHENOCRYST;RIM;PRIMARY;;;;;57.95;;;;;26.22;;;;;;;;0.63;;;;;8.06;;;;0.22;;;;0.45;EMP (EPMA);;;6.32;;;;;;;;;;;;;;;;;;;;;;;;;;;;;;;;;;;;;;;;;;;;;;;;;;;;;;;;;;;;;;;;;;;;;;;;;;;;;;;;;;;;;;;;;;;;;;;;;;;;;;;;;;;;;;;;;;;;;;;;;;;;;;;;;;;;;;;;;;;;;;;;;;;;;;;;;;;;;;;;;;;;;;;;;;;;;;;;;;;;;;;;;;;;;;;;;;;;;;;;;;;;;;;;;;;;;;;;;;;;;;;;;;;;;;;;;;56.8;40;;;;;;;;;;;;;2.6;;;;;;;;;;;;;;;;;;;;
2011;[15668] MADUREIRA P.(2011)  [GeoReM [6330] ];samp. PMT-83;;AZORES / TERCEIRA / SANTA BARBARA;;38.72;-27.22;38.72;-27.22;;;OUTCROP;;;SUBAERIAL;VOLCANIC ROCK;BENMOREITE;;;0;100000;QUATERNARY;;;;;;;MINERAL / COMPONENT (INCL. GROUNDMASS);PLAGIOCLASE;;PHENOCRYST;CORE;PRIMARY;;;;;58.88;;;;;26.39;;;;;;;;0.34;;;;;8.11;;;;0.04;;;;0.41;EMP (EPMA);;;6.52;;;;;;;;;;;;;;;;;;;;;;;;;;;;;;;;;;;;;;;;;;;;;;;;;;;;;;;;;;;;;;;;;;;;;;;;;;;;;;;;;;;;;;;;;;;;;;;;;;;;;;;;;;;;;;;;;;;;;;;;;;;;;;;;;;;;;;;;;;;;;;;;;;;;;;;;;;;;;;;;;;;;;;;;;;;;;;;;;;;;;;;;;;;;;;;;;;;;;;;;;;;;;;;;;;;;;;;;;;;;;;;;;;;;;;;;;;57.8;39.7;;;;;;;;;;;;;2.4;;;;;;;;;;;;;;;;;;;;
2011;[15746] LEMASURIER W. E.(2011)  [GeoReM [6163] ];samp. 67A35;250599;ANTARCTICA / WEST ANTARCTIC RIFT SYSTEM / MARIE BYRD LAND / MOUNT BERLIN;WEDEMEYER ROCKS;-76;-135.8;-76;-135.8;;;OUTCROP;;;SUBAERIAL;VOLCANIC ROCK;BENMOREITE;PORPHYRITIC;;2580000;2580000;PLIOCENE;;;;;;;WHOLE ROCK;;;;;;;;;;;;;;;;;;;;;;;;;;;;;;;;;;;;;;;;;;;;;;;;;;;;;;;;;;;;;;;;;;;;;;;;;;;;;;;;;;;73;ICPMS;;;0;ICPMS;;;25;ICPMS;;;0;ICPMS;;;12;ICPMS;;;164;ICPMS;;;30;ICPMS;;;;;;;63;ICPMS;;;;;562;ICPMS;;;;;58;ICPMS;;;541;ICPMS;;;105;ICPMS;;;;;;;;;;;;;;;;;693;ICPMS;;;;;;;;;;;;;;;;;;;;;;;;;;;;;;;;;;;;;;;;;;;;;;;;;;;;;;;;;;;;;;;;;;;;;;;;;;;;;;;;;;;;;;;;;;;;;;;;;;;;;;;;;;;;;;;;;;;;;;;;;;;;;;;;;;;;;;;;;;;;;;;;;;;;;;;;;;
2011;[15746] LEMASURIER W. E.(2011)  [GeoReM [6163] ];samp. BN32A;;ANTARCTICA / WEST ANTARCTIC RIFT SYSTEM / MARIE BYRD LAND / MOUNT BERLIN;;-76;-135.8;-76;-135.8;;;OUTCROP;;;SUBAERIAL;VOLCANIC ROCK;BENMOREITE;;;2580000;2580000;PLIOCENE;;;;;;;WHOLE ROCK;;;;;;;;;;54.97;0.78;;;;15.81;;;;;;;;;2.63;9.66;7.29;;4.65;1.59;0.26;;;;;;2.92;XRF;;;6.04;0.83;;;0;0;0;;0.08;;;;;;;;;18.4;;;;;;;;;;;;;;;;;;;;;10.3;ICPMS;;;;24;ICPMS;;;6.2;ICPMS;;;8.3;ICPMS;;;5.2;ICPMS;;;10.8;ICPMS;;;163;ICPMS;;;33.1;ICPMS;;;;;;;63.4;ICPMS;;;;;659;ICPMS;;;;;57.1;ICPMS;;;584;ICPMS;;;106;ICPMS;;;;;;;4.38;0.23;ICPMS;;;;1.62;ICPMS;;;706;ICPMS;;;72.6;ICPMS;;;146;ICPMS;;;19.5;75.3;ICPMS;;;;;14.6;ICPMS;;;4.76;ICPMS;;;13;ICPMS;;;1.92;ICPMS;;;10.4;ICPMS;;;2.03;5.35;ICPMS;;;;4.52;ICPMS;;;0.66;12.5;6.3;;;;;;;9.12;ICPMS;;;;;;11.5;ICPMS;;;3.09;ICPMS;;;0.5129;;;;;0.702936;;;0.27;;;;;;;;;;;;;;;;;;;;;;;;;;;;;;;;;;;;;;;;;;;;;;;;;;;;;;;;;;;;;;;;;;;;;;;;;;
2011;[15746] LEMASURIER W. E.(2011)  [GeoReM [6163] ];samp. BN31D;;ANTARCTICA / WEST ANTARCTIC RIFT SYSTEM / MARIE BYRD LAND / MOUNT BERLIN;;-76;-135.8;-76;-135.8;;;OUTCROP;;;SUBAERIAL;VOLCANIC ROCK;BENMOREITE;;;2580000;2580000;PLIOCENE;;;;;;;WHOLE ROCK;;;;;;;;;;57.23;1.33;;;;17.94;;;;;;;;;4.26;7.72;3.89;;3.78;0.82;0.26;;;;;;3.06;XRF;;;5.6;0.52;;;0.48;0;0;;0;;;;;;;;;;;;;;;;;;;;;;;;;;;;;;;;;;;55;ICPMS;;;4;ICPMS;;;10;ICPMS;;;0;ICPMS;;;8;ICPMS;;;138;ICPMS;;;29;ICPMS;;;;;;;13;ICPMS;;;;;535;ICPMS;;;;;58;ICPMS;;;630;ICPMS;;;116;ICPMS;;;;;;;;;;;;;;;;;731;ICPMS;;;;;;;;;;;;;;;;;;;;;;;;;;;;;;;;;;;;;;;;;;;;;;;;;;;;;;;;;;;;;;;;;;;;;;;;;;;;;;;;;;;;;;;;;;;;;;;;;;;;;;;;;;;;;;;;;;;;;;;;;;;;;;;;;;;;;;;;;;;;;;;;;;;;;;;;;;
2011;[15746] LEMASURIER W. E.(2011)  [GeoReM [6163] ];samp. BN3C;;ANTARCTICA / WEST ANTARCTIC RIFT SYSTEM / MARIE BYRD LAND / MOUNT BERLIN;;-76;-135.8;-76;-135.8;;;OUTCROP;;;SUBAERIAL;VOLCANIC ROCK;BENMOREITE;;;2580000;2580000;PLIOCENE;;;;;;;WHOLE ROCK;;;;;;;;;;58.08;0.3;;;;17.63;;;;;;;;;4.29;7.15;3.29;;2.13;0.1;0.23;;;;;;4.55;XRF;;;7.68;0.1;;;0;0.68;0;;0;;;;;;;;;13.6;;;;;;;;;;;;;;;;;;;;;3.45;ICPMS;;;;0.62;ICPMS;;;2.2;ICPMS;;;1.1;ICPMS;;;0.2;ICPMS;;;6.5;ICPMS;;;139;ICPMS;;;29.1;ICPMS;;;;;;;65;ICPMS;;;;;177;ICPMS;;;;;56.8;ICPMS;;;726;ICPMS;;;150;ICPMS;;;;;;;6;0.149;ICPMS;;;;0.755;ICPMS;;;1331;ICPMS;;;80;ICPMS;;;161;ICPMS;;;19.5;69.8;ICPMS;;;;;13.6;ICPMS;;;4.07;ICPMS;;;11.5;ICPMS;;;1.83;ICPMS;;;10.1;ICPMS;;;1.99;5.41;ICPMS;;;;4.96;ICPMS;;;0.759;14.9;8.43;;;;;;;7.76;ICPMS;;;;;;11.2;ICPMS;;;3.49;ICPMS;;;0.512891;;;;;0.702917;;;1.04;;;;;;;;;;;;;;;;;;;;;;;;;;;;;;;;;;;;;;;;;;;;;;;;;;;;;;;;;;;;;;;;;;;;;;;;;;
2011;[15746] LEMASURIER W. E.(2011)  [GeoReM [6163] ];samp. BN7B;;ANTARCTICA / WEST ANTARCTIC RIFT SYSTEM / MARIE BYRD LAND / MOUNT BERLIN;;-76;-135.8;-76;-135.8;;;OUTCROP;;;SUBAERIAL;VOLCANIC ROCK;BENMOREITE;;;2700000;2700000;PLIOCENE;;;;;;;WHOLE ROCK;;;;;;;;;;58.17;1.25;;;;16.54;;;;;;;;;4;7.61;4.01;;3.63;1.09;0.21;;;;;;3.54;XRF;;;6.32;0.47;;;0;0;0;;0.06;;;;;;;;;;;;;;;;;;;;;;;;;;;;;;;;;;;43;ICPMS;;;4;ICPMS;;;6;ICPMS;;;6;ICPMS;;;10;ICPMS;;;132;ICPMS;;;28;ICPMS;;;;;;;69;ICPMS;;;;;540;ICPMS;;;;;53;ICPMS;;;542;ICPMS;;;102;ICPMS;;;;;;;;;;;;;;;;;821;ICPMS;;;;;;;;;;;;;;;;;;;;;;;;;;;;;;;;;;;;;;;;;;;;;;;;;;;;;;;;;;;;;;;;;;;;;;;;;;;;;;;;;;;;;;;;;;;;;;;;;;;;;;;;;;;;;;;;;;;;;;;;;;;;;;;;;;;;;;;;;;;;;;;;;;;;;;;;;;
2011;[15746] LEMASURIER W. E.(2011)  [GeoReM [6163] ];samp. BN7E;;ANTARCTICA / WEST ANTARCTIC RIFT SYSTEM / MARIE BYRD LAND / MOUNT BERLIN;;-76;-135.8;-76;-135.8;;;OUTCROP;;;SUBAERIAL;VOLCANIC ROCK;BENMOREITE;;;620000;620000;PLEISTOCENE;;;;;;;WHOLE ROCK;;;;;;;;;;58.37;0.56;;;;15.8;;;;;;;;;8.06;8.57;1.32;;2.33;0.34;0.26;;;;;;4.5;XRF;;;7.28;0.18;;;0;0.47;0;;0.05;;;;;;;;;24.5;;;;;;;;;;;;;;;;;;;;;8.86;ICPMS;;;;0.77;ICPMS;;;2.3;ICPMS;;;1.2;ICPMS;;;0;ICPMS;;;5.4;ICPMS;;;163;ICPMS;;;31.7;ICPMS;;;;;;;79.2;ICPMS;;;;;176;ICPMS;;;;;64;ICPMS;;;796;ICPMS;;;142;ICPMS;;;;;;;7.55;0.2;ICPMS;;;;1.04;ICPMS;;;1033;ICPMS;;;94.2;ICPMS;;;183;ICPMS;;;22.2;79.8;ICPMS;;;;;15.5;ICPMS;;;4.41;ICPMS;;;13.2;ICPMS;;;2.08;ICPMS;;;11.3;ICPMS;;;2.22;5.99;ICPMS;;;;5.35;ICPMS;;;0.794;16.6;8.96;;;;;;;7.97;ICPMS;;;;;;15.3;ICPMS;;;4.64;ICPMS;;;0.512888;;;;;0.702965;;;1.23;19.556;TIMS;;;;15.612;TIMS;;;;;39.002;TIMS;;;;;;;;;;;;;;;;;;;;;;;;;;;;;;;;;;;;;;;;;;;;;;;;;;;;;;;;;;;;;
2011;[15746] LEMASURIER W. E.(2011)  [GeoReM [6163] ];samp. BN7D;;ANTARCTICA / WEST ANTARCTIC RIFT SYSTEM / MARIE BYRD LAND / MOUNT BERLIN;;-76;-135.8;-76;-135.8;;;OUTCROP;;;SUBAERIAL;VOLCANIC ROCK;BENMOREITE;;;620000;620000;PLEISTOCENE;;;;;;;WHOLE ROCK;;;;;;;;;;59.89;0.14;;;;15.84;;;;;;;;;5.3;6.76;1.99;;0.79;0;0.23;;;;;;4.74;XRF;;;9.96;0.05;;;0;0.5;0;;0.13;;;;;;;;;32.1;;;;;;;;;;;;;;;;;;;;;2.6;ICPMS;;;;0.22;ICPMS;;;5.41;ICPMS;;;0.18;ICPMS;;;13.3;ICPMS;;;10.8;ICPMS;;;331;ICPMS;;;61.6;ICPMS;;;;;;;180;ICPMS;;;;;6.28;ICPMS;;;;;147;ICPMS;;;2123;ICPMS;;;358;ICPMS;;;;;;;5.11;0.53;ICPMS;;;;2.7;ICPMS;;;56.6;ICPMS;;;204;ICPMS;;;378;ICPMS;;;45.3;159;ICPMS;;;;;29.5;ICPMS;;;4.27;ICPMS;;;26.7;ICPMS;;;4.31;ICPMS;;;24.6;ICPMS;;;5.02;13.7;ICPMS;;;;11.9;ICPMS;;;1.64;45.2;24.3;;;;;;;26.3;ICPMS;;;;;;44.2;ICPMS;;;13.2;ICPMS;;;;;;;;;;;;;;;;;;;;;;;;;;;;;;;;;;;;;;;;;;;;;;;;;;;;;;;;;;;;;;;;;;;;;;;;;;;;;;;;;;;;;
2011;[15746] LEMASURIER W. E.(2011)  [GeoReM [6163] ];samp. BN7D;;ANTARCTICA / WEST ANTARCTIC RIFT SYSTEM / MARIE BYRD LAND / MOUNT BERLIN;;-76;-135.8;-76;-135.8;;;OUTCROP;;;SUBAERIAL;VOLCANIC ROCK;BENMOREITE;;;620000;620000;PLEISTOCENE;;;;;;;WHOLE ROCK;;;;;;;;;;;;;;;;;;;;;;;;;;;;;;;;;;;;;;;;;;;;;;;;;;;;;;;;;32.5;;;;;;;;;;;;;;;;;;;;;2.44;ICPMS;;;;0.22;ICPMS;;;5.37;ICPMS;;;0.17;ICPMS;;;13.2;ICPMS;;;10.7;ICPMS;;;333;ICPMS;;;63.8;ICPMS;;;;;;;180;ICPMS;;;;;6.17;ICPMS;;;;;146;ICPMS;;;2103;ICPMS;;;357;ICPMS;;;;;;;5.13;0.53;ICPMS;;;;2.71;ICPMS;;;56.4;ICPMS;;;202;ICPMS;;;374;ICPMS;;;45.4;159;ICPMS;;;;;29.2;ICPMS;;;4.22;ICPMS;;;26.4;ICPMS;;;4.27;ICPMS;;;24.3;ICPMS;;;4.95;13.6;ICPMS;;;;11.7;ICPMS;;;1.62;44.4;24.4;;;;;;;26.1;ICPMS;;;;;;44.4;ICPMS;;;13.3;ICPMS;;;;;;;;;;;;;;;;;;;;;;;;;;;;;;;;;;;;;;;;;;;;;;;;;;;;;;;;;;;;;;;;;;;;;;;;;;;;;;;;;;;;;
2011;[15746] LEMASURIER W. E.(2011)  [GeoReM [6163] ];samp. GI11C;250631;ANTARCTICA / WEST ANTARCTIC RIFT SYSTEM / MARIE BYRD LAND / MOUNT OBIGLIO;GRANT ISLAND;-74.42;-131.83;-74.42;-131.83;;;OUTCROP;;;SUBAERIAL;VOLCANIC ROCK;BENMOREITE;;;700000;700000;PLEISTOCENE;;;;;;;WHOLE ROCK;;;;;;;;;;;;;;;;;;;;;;;;;;;;;;;;;;;;;;;;;;;;;;;;;;;;;;;;;12.4;;;;;;;;;;;;;;;;;;;;;17.1;ICPMS;;;;0.16;ICPMS;;;2.9;ICPMS;;;0.9;ICPMS;;;0;ICPMS;;;6.4;ICPMS;;;194;ICPMS;;;30.9;ICPMS;;;;;;;45;ICPMS;;;;;490;ICPMS;;;;;74.4;ICPMS;;;666;ICPMS;;;129;ICPMS;;;;;;;5.3;0.11;ICPMS;;;;0.388;ICPMS;;;3580;ICPMS;;;93.5;ICPMS;;;201;ICPMS;;;26.2;101;ICPMS;;;;;20.4;ICPMS;;;7.22;ICPMS;;;17.2;ICPMS;;;2.64;ICPMS;;;13.9;ICPMS;;;2.68;7.02;ICPMS;;;;6.06;ICPMS;;;0.924;14.5;7.01;;;;;;;7.34;ICPMS;;;;;;8.07;ICPMS;;;2.33;ICPMS;;;;;;;;;;;;;;;;;;;;;;;;;;;;;;;;;;;;;;;;;;;;;;;;;;;;;;;;;;;;;;;;;;;;;;;;;;;;;;;;;;;;;
2011;[15746] LEMASURIER W. E.(2011)  [GeoReM [6163] ];samp. BN7B-27;;ANTARCTICA / WEST ANTARCTIC RIFT SYSTEM / MARIE BYRD LAND / MOUNT BERLIN;;-76;-135.8;-76;-135.8;;;OUTCROP;;;SUBAERIAL;VOLCANIC ROCK;BENMOREITE;;;;;;;;;;;;MINERAL / COMPONENT (INCL. GROUNDMASS);OLIVINE;;;;PRIMARY;;;;;34.11;0.22;;;;0;0;;;;;;;;;46.42;;;0.68;16.96;1.77;;;0.36;;;;;;;0;;;;;;;;;;;;;;;;;;;;;;;;;;;;;;;;;;;;;;;;;;;;;;;;;;;;;;;;;;;;;;;;;;;;;;;;;;;;;;;;;;;;;;;;;;;;;;;;;;;;;;;;;;;;;;;;;;;;;;;;;;;;;;;;;;;;;;;;;;;;;;;;;;;;;;;;;;;;;;;;;;;;;;;;;;;;;;;;;;;;;;;;;;;;;;;;;;;;;;;;;;;;;;;;;;;;;;;;;;;;;;;;;;;;;;;;;;;;;;;61;39;;;;;;;;;;;;;;;;;;;;;;;;;;;;
2011;[15746] LEMASURIER W. E.(2011)  [GeoReM [6163] ];samp. BN7B-28;;ANTARCTICA / WEST ANTARCTIC RIFT SYSTEM / MARIE BYRD LAND / MOUNT BERLIN;;-76;-135.8;-76;-135.8;;;OUTCROP;;;SUBAERIAL;VOLCANIC ROCK;BENMOREITE;;;;;;;;;;;;MINERAL / COMPONENT (INCL. GROUNDMASS);OLIVINE;;;;PRIMARY;;;;;34.68;0.27;;;;0.2;0.17;;;;;;;;;45.64;;;0.63;18.19;1.66;;;0.36;;;;;;;0.26;;;;;;;;;;;;;;;;;;;;;;;;;;;;;;;;;;;;;;;;;;;;;;;;;;;;;;;;;;;;;;;;;;;;;;;;;;;;;;;;;;;;;;;;;;;;;;;;;;;;;;;;;;;;;;;;;;;;;;;;;;;;;;;;;;;;;;;;;;;;;;;;;;;;;;;;;;;;;;;;;;;;;;;;;;;;;;;;;;;;;;;;;;;;;;;;;;;;;;;;;;;;;;;;;;;;;;;;;;;;;;;;;;;;;;;;;;;;;;;58;42;;;;;;;;;;;;;;;;;;;;;;;;;;;;
2011;[15746] LEMASURIER W. E.(2011)  [GeoReM [6163] ];samp. BN7A-21;;ANTARCTICA / WEST ANTARCTIC RIFT SYSTEM / MARIE BYRD LAND / MOUNT BERLIN;;-76;-135.8;-76;-135.8;;;OUTCROP;;;SUBAERIAL;VOLCANIC ROCK;BENMOREITE;;;;;;;;;;;;MINERAL / COMPONENT (INCL. GROUNDMASS);CLINOPYROXENE;;;;PRIMARY;;;;;50.48;0.65;;;;0.94;0.13;;;;;;;;;17.66;;;19.97;8.22;0.92;;;0;;;0;EMP (EPMA);;;0.87;;;;;;;;;;;;;;;;;;;;;;;;;;;;;;;;;;;;;;;;;;;;;;;;;;;;;;;;;;;;;;;;;;;;;;;;;;;;;;;;;;;;;;;;;;;;;;;;;;;;;;;;;;;;;;;;;;;;;;;;;;;;;;;;;;;;;;;;;;;;;;;;;;;;;;;;;;;;;;;;;;;;;;;;;;;;;;;;;;;;;;;;;;;;;;;;;;;;;;;;;;;;;;;;;;;;;;;;;;;;;;;;;;;;;;;;;;;;;;25.3;;;30.5;;;;;;;;;;;;44.2;;;;;;;;;;;;;;;
2011;[15746] LEMASURIER W. E.(2011)  [GeoReM [6163] ];samp. BN7B-10;;ANTARCTICA / WEST ANTARCTIC RIFT SYSTEM / MARIE BYRD LAND / MOUNT BERLIN;;-76;-135.8;-76;-135.8;;;OUTCROP;;;SUBAERIAL;VOLCANIC ROCK;BENMOREITE;;;;;;;;;;;;MINERAL / COMPONENT (INCL. GROUNDMASS);CLINOPYROXENE;;MICROPHENOCRYST;;PRIMARY;;;;;52.55;0.77;;;;1.1;0.31;;;;;;;;;13.92;;;20.13;10.63;0.67;;;0;;;0;EMP (EPMA);;;0;;;;;;;;;;;;;;;;;;;;;;;;;;;;;;;;;;;;;;;;;;;;;;;;;;;;;;;;;;;;;;;;;;;;;;;;;;;;;;;;;;;;;;;;;;;;;;;;;;;;;;;;;;;;;;;;;;;;;;;;;;;;;;;;;;;;;;;;;;;;;;;;;;;;;;;;;;;;;;;;;;;;;;;;;;;;;;;;;;;;;;;;;;;;;;;;;;;;;;;;;;;;;;;;;;;;;;;;;;;;;;;;;;;;;;;;;;;;;;32.3;;;23.7;;;;;;;;;;;;44;;;;;;;;;;;;;;;
2011;[15746] LEMASURIER W. E.(2011)  [GeoReM [6163] ];samp. BN32A-32;;ANTARCTICA / WEST ANTARCTIC RIFT SYSTEM / MARIE BYRD LAND / MOUNT BERLIN;;-76;-135.8;-76;-135.8;;;OUTCROP;;;SUBAERIAL;VOLCANIC ROCK;BENMOREITE;;;;;;;;;;;;MINERAL / COMPONENT (INCL. GROUNDMASS);CLINOPYROXENE;;PHENOCRYST;CORE;PRIMARY;;;;;50.08;1.23;;;;2.02;0.18;;;;;;;;;11.72;;;19.16;12.03;0.61;;;0.29;;;0;EMP (EPMA);;;0.22;;;;;;;;;;;;;;;;;;;;;;;;;;;;;;;;;;;;;;;;;;;;;;;;;;;;;;;;;;;;;;;;;;;;;;;;;;;;;;;;;;;;;;;;;;;;;;;;;;;;;;;;;;;;;;;;;;;;;;;;;;;;;;;;;;;;;;;;;;;;;;;;;;;;;;;;;;;;;;;;;;;;;;;;;;;;;;;;;;;;;;;;;;;;;;;;;;;;;;;;;;;;;;;;;;;;;;;;;;;;;;;;;;;;;;;;;;;;;;37.2;;;20.3;;;;;;;;;;;;42.5;;;;;;;;;;;;;;;
2011;[15746] LEMASURIER W. E.(2011)  [GeoReM [6163] ];samp. BN32A-36;;ANTARCTICA / WEST ANTARCTIC RIFT SYSTEM / MARIE BYRD LAND / MOUNT BERLIN;;-76;-135.8;-76;-135.8;;;OUTCROP;;;SUBAERIAL;VOLCANIC ROCK;BENMOREITE;;;;;;;;;;;;MINERAL / COMPONENT (INCL. GROUNDMASS);CLINOPYROXENE;;PHENOCRYST;RIM;PRIMARY;;;;;50.36;1.05;;;;1.41;0.13;;;;;;;;;12.74;;;19.46;11.3;0.65;;;0;;;0;EMP (EPMA);;;0;;;;;;;;;;;;;;;;;;;;;;;;;;;;;;;;;;;;;;;;;;;;;;;;;;;;;;;;;;;;;;;;;;;;;;;;;;;;;;;;;;;;;;;;;;;;;;;;;;;;;;;;;;;;;;;;;;;;;;;;;;;;;;;;;;;;;;;;;;;;;;;;;;;;;;;;;;;;;;;;;;;;;;;;;;;;;;;;;;;;;;;;;;;;;;;;;;;;;;;;;;;;;;;;;;;;;;;;;;;;;;;;;;;;;;;;;;;;;;34.8;;;22;;;;;;;;;;;;43.1;;;;;;;;;;;;;;;
2011;[15746] LEMASURIER W. E.(2011)  [GeoReM [6163] ];samp. BN7D-31;;ANTARCTICA / WEST ANTARCTIC RIFT SYSTEM / MARIE BYRD LAND / MOUNT BERLIN;;-76;-135.8;-76;-135.8;;;OUTCROP;;;SUBAERIAL;VOLCANIC ROCK;BENMOREITE;;;;;;;;;;;;MINERAL / COMPONENT (INCL. GROUNDMASS);CLINOPYROXENE;;PHENOCRYST;CORE;PRIMARY;;;;;48.67;0.38;;;;1.21;0;;;;;;;;;28.88;;;17.47;0.31;1.17;;;0;;;0;EMP (EPMA);;;2.71;;;;;;;;;;;;;;;;;;;;;;;;;;;;;;;;;;;;;;;;;;;;;;;;;;;;;;;;;;;;;;;;;;;;;;;;;;;;;;;;;;;;;;;;;;;;;;;;;;;;;;;;;;;;;;;;;;;;;;;;;;;;;;;;;;;;;;;;;;;;;;;;;;;;;;;;;;;;;;;;;;;;;;;;;;;;;;;;;;;;;;;;;;;;;;;;;;;;;;;;;;;;;;;;;;;;;;;;;;;;;;;;;;;;;;;;;;;;;;1.1;;;55.7;;;;;;;;;;;;43.2;;;;;;;;;;;;;;;