Year;CITATION;SAMPLE NAME;UNIQUE_ID;LOCATION;LOCATION COMMENT;LATITUDE (MIN.);LONGITUDE (MIN.);LATITUDE (MAX.);LONGITUDE (MAX.);ELEVATION (MIN.);ELEVATION (MAX.);SAMPLING TECHNIQUE;DRILLING DEPTH (MIN.);DRILLING DEPTH (MAX.);LAND/SEA (SAMPLING);ROCK TYPE;ROCK NAME;ROCK TEXTURE;SAMPLE COMMENT;AGE (MIN.);AGE (MAX.);GEOLOGICAL AGE;GEOLOGICAL AGE PREFIX;ERUPTION DAY;ERUPTION MONTH;ERUPTION YEAR;ALTERATION;ALTERATION TYPE;TYPE OF MATERIAL;MINERAL / COMPONENT;SPOT (MINERAL);CRYSTAL;RIM / CORE (MINERAL GRAINS);PRIMARY/SECONDARY;INCLUSION TYPE;MINERAL (INCLUSION);HOSTMINERAL (INCLUSION);HEATING;SIO2(WT%);TIO2(WT%);ZRO2(WT%);HFO2(WT%);THO2(WT%);AL2O3(WT%);CR2O3(WT%);LA2O3(WT%);CE2O3(WT%);ND2O3(WT%);SM2O3(WT%);V2O3(WT%);NB2O5(WT%);FE2O3T(WT%);FE2O3(WT%);FEOT(WT%);FEO(WT%);FET(WT%);CAO(WT%);MGO(WT%);MNO(WT%);BAO(WT%);SRO(WT%);NIO(WT%);ZNO(WT%);RB2O(WT%);K2O(WT%);;;;NA2O(WT%);P2O5(WT%);AS2O5(WT%);H2O(WT%);H2OP(WT%);H2OM(WT%);CO2(WT%);C(WT%);F(WT%);CL(WT%);OH(WT%);SO3(WT%);S(WT%);LOI(WT%);TI(WT%);CA(WT%);K(WT%);LI(PPM);BE(PPM);B(PPM);F(PPM);P(PPM);S(PPM);CL(PPM);AR40(AT/G);;;;AR40(CCMSTP/G);;;;AR40(MOL/G);;;;AR40(PPB);K(PPM);SC(PPM);;;;TI(PPM);V(PPM);;;;CR(PPM);;;;CO(PPM);;;;NI(PPM);;;;CU(PPM);;;;ZN(PPM);;;;GA(PPM);;;;GE(PPM);AS(PPM);AS(PPB);SE(PPM);RB(PPM);;;;;;SR(PPM);;;;;;Y(PPM);;;;ZR(PPM);;;;NB(PPM);;;;MO(PPM);AG(PPM);CD(PPM);IN(PPM);SN(PPM);SB(PPM): altern. values or methods;;;;TE(PPM);CS(PPM): altern. values or methods;;;;BA(PPM): altern. values or methods;;;;LA(PPM): altern. values or methods;;;;CE(PPM): altern. values or methods;;;;PR(PPM);ND(PPM): altern. values or methods;;;;;;SM(PPM): altern. values or methods;;;;EU(PPM): altern. values or methods;;;;GD(PPM): altern. values or methods;;;;TB(PPM): altern. values or methods;;;;DY(PPM): altern. values or methods;;;;HO(PPM);ER(PPM): altern. values or methods;;;;TM(PPM);YB(PPM): altern. values or methods;;;;LU(PPM);HF(PPM);TA(PPM);W(PPM);RE(PPM);AU(PPM);HG(PPM);HG(PPB);TL(PPM);PB(PPM): altern. values or methods;;;;BI(PPM);PO210_ACT(DPM/G);RA226_ACT(DPM/G);TH(PPM): altern. values or methods;;;;U(PPM): altern. values or methods;;;;ND143_ND144;ND143_ND144_INI;EPSILON_ND;EPSILON_ND_INI;SM147_ND144;SR87_SR86;SR87_SR86_INI;EPSILON_SR_INI;RB87_SR86;PB206_PB204: altern. values or methods;;;;PB206_PB204_INI;PB207_PB204: altern. values or methods;;;;PB207_PB204_INI;PB207_PB206;PB208_PB204: altern. values or methods;;;;PB208_PB204_INI;PB208_PB206;HF176_HF177;LU176_HF177;AR38_AR36;AR40_AR36;AR40_AR36_INI;PB206_U238;PB207_U235;RA226_TH230_ACT;PA231_U235_ACT;TH230_TH232_ACT;TH230_U238_ACT;TH232_PB204;U234_U238_ACT;U235_PB204;U238_PB204;U238_TH232_ACT;D7LI(VS LSVEC);D13C(VS PDB);D18O(PER MIL);D18O(VS SMOW);D18O(VS VSMOW);D34S(VS VCDT);ALBITE(MOL%);ANORTHITE(MOL%);CA OLIVINE(MOL%);CHROMITE(MOL%);ENSTATITE(MOL%);FAYALITE(MOL%);FORSTERITE(MOL%);FERROSILITE(MOL%);HEMATITE(MOL%);HERCYNITE(MOL%);ILMENITE(MOL%);MAGNESIOFERRITE(MOL%);MONTICELLITE(MOL%);MAGNETITE(MOL%);ORTHOCLASE(MOL%);PICROCHROMITE(MOL%);SPINEL(MOL%);TEPHROITE(MOL%);ULVOSPINEL(MOL%);WOLLASTONITE(MOL%);AGE(KA): altern. values or methods;;;;;;AGE(MA): altern. values or methods;;;;;;AGE_PB207_U235(MA);AGE_PB206_U238(MA);
2000;[4843] THIRLWALL M. F. (2000);samp. TE42;;CANARY ISLANDS / TENERIFE;TENO MASSIF;28.3;-16.83;28.3;-16.83;990;990;OUTCROP;;;SUBAERIAL;VOLCANIC ROCK;BENMOREITE;;;6000000;6400000;MIOCENE;;;;;;;WHOLE ROCK;;;;;;;;;;58.55;1.05;;;;20.08;;;;;;;;5.08;;;;;4.15;0.92;0.2;;;;;;2.856;XRF;;;6.84;0.198;;;;;;;;;;;;0.69;;;;;;;;;;978;;;;;;;;;;;;;;;3;XRF;;;;38;XRF;;;2;XRF;;;;;;;3;XRF;;;1;XRF;;;113;XRF;;;28.2;XRF;;;;;;;72.6;XRF;;;;;1371;XRF;;;;;39.5;XRF;;;687;XRF;;;177.6;XRF;;;;;;;;;;;;;;;;;887;XRF;;;122;XRF;;;205;XRF;;;;71;XRF;;;;;;;;;;;;;;;;;;;;;;;;;;;;;;;;;;;;;;;;;;;;9.3;XRF;;;;;;13.5;XRF;;;;;;;;;;;;;;;;;;;;;;;;;;;;;;;;;;;;;;;;;;;;;;;;;;;;;;;;;;;;;;;;;;;;;;;;;;;;;;;;;;;;;;;;;
2000;[4843] THIRLWALL M. F. (2000);samp. TE44;;CANARY ISLANDS / TENERIFE;TENO MASSIF;28.3;-16.83;28.3;-16.83;990;990;OUTCROP;;;SUBAERIAL;VOLCANIC ROCK;BENMOREITE;;;6000000;6400000;MIOCENE;;;;;;;WHOLE ROCK;;;;;;;;;;54.81;1.62;;;;19.21;;;;;;;;6.98;;;;;5.9;1.65;0.217;;;;;;2.36;XRF;;;6.4;0.442;;;;;;;;;;;;0.29;;;;;;;;;;1188;;;;;;;;;;;;;;;4;XRF;;;;57;XRF;;;3;XRF;;;;;;;4;XRF;;;4;XRF;;;119;XRF;;;25.3;XRF;;;;;;;57.9;XRF;;;;;1468;XRF;;;;;47.6;XRF;;;563;XRF;;;167.9;XRF;;;;;;;;;;;;;;;;;668;XRF;;;101;XRF;104.8;TIMS_ID;211;XRF;211.6;TIMS_ID;;88;XRF;89.86;TIMS_ID;;;15.212;TIMS_ID;;;4.534;TIMS_ID;;;11.88;TIMS_ID;;;;;;;8.97;TIMS_ID;;;;4.21;TIMS_ID;;;;3.42;TIMS_ID;;;0.478;;;;;;;;;6.3;XRF;;;;;;10.7;XRF;;;;;;;;;;;;;;;;;;;;;;;;;;;;;;;;;;;;;;;;;;;;;;;;;;;;;;;;;;;;;;;;;;;;;;;;;;;;;;;;;;;;;;;;;
2000;[4843] THIRLWALL M. F. (2000);samp. TE46;;CANARY ISLANDS / TENERIFE;TENO MASSIF;28.3;-16.83;28.3;-16.83;990;990;OUTCROP;;;SUBAERIAL;VOLCANIC ROCK;BENMOREITE;;;6000000;6400000;MIOCENE;;;;;;;WHOLE ROCK;;;;;;;;;;58.69;1.05;;;;20.54;;;;;;;;5.04;;;;;4.2;0.97;0.167;;;;;;2.879;XRF;;;5.89;0.192;;;;;;;;;;;;1.7;;;;;;;;;;77;;;;;;;;;;;;;;;2;XRF;;;;40;XRF;;;2;XRF;;;;;;;3;XRF;;;6;XRF;;;112;XRF;;;27.7;XRF;;;;;;;72.5;XRF;;;;;1379;XRF;;;;;38.8;XRF;;;706;XRF;;;181.3;XRF;;;;;;;;;;;;;;;;;919;XRF;;;120;XRF;;;201;XRF;;;;72;XRF;;;;;;;;;;;;;;;;;;;;;;;;;;;;;;;;;;;;;;;;;;;;8.4;XRF;;;;;;13.9;XRF;;;;;;;;;;;;;;;;;;;;;;;;;;;;;;;;;;;;;;;;;;;;;;;;;;;;;;;;;;;;;;;;;;;;;;;;;;;;;;;;;;;;;;;;;
2000;[4843] THIRLWALL M. F. (2000);samp. AN35;;CANARY ISLANDS / TENERIFE;ANAGA MASSIF;28.5;-16.3;28.5;-16.3;;;OUTCROP;;;SUBAERIAL;VOLCANIC ROCK;BENMOREITE;;;4200000;8000000;NEOGENE;;;;;;;MINERAL / COMPONENT (INCL. GROUNDMASS);PLAGIOCLASE;;;;PRIMARY;;;;;;;;;;;;;;;;;;;;;;;;;;;;;;;;;;;;;;;;;;;;;;;;;;;;;;;;;;;;;;;;;;;;;;;;;;;;;;;;;;;;;;;;;;;;;;;;;;;;;;;;;;;;;;;;;;;;;;;;;;;;;;;;;;;;;;;;;;;;;;;;;;;;;;;;;;;;;;;;;;;;;;;;;;;;;;;;;;;;;;;;;;;;;;;;;;;;;;;;;;;;;;;;;;;;;;;;;;;;;;;;;;;;;;;;;;;;;;;;;;;;;;;;;;;;;;;;;;;;;;;;;;;;;;;;;;;;;;;;;;;;;;;;;;;;;;;7.96;AR-AR;7.97;AR-AR;8.05;AR-AR;;;
2000;[4843] THIRLWALL M. F. (2000);samp. AN36;;CANARY ISLANDS / TENERIFE;ANAGA MASSIF;28.5;-16.3;28.5;-16.3;;;OUTCROP;;;SUBAERIAL;VOLCANIC ROCK;BENMOREITE;;;4200000;8000000;NEOGENE;;;;;;;MINERAL / COMPONENT (INCL. GROUNDMASS);CLINOPYROXENE;CPX1;;;PRIMARY;;;;;49.12;1.63;;;;4.74;0.89;;;;;;;;;;5.22;;22.53;14.34;0.09;;;;;;;;;;0.6;;;;;;;;;;;;;;;;;;;;;;;;;;;;;;;;;;;;;;;;;;;;;;;;;;;;;;;;;;;;;;;;;;;;;;;;;;;;;;;;;;;;;;;;;;;;;;;;;;;;;;;;;;;;;;;;;;;;;;;;;;;;;;;;;;;;;;;;;;;;;;;;;;;;;;;;;;;;;;;;;;;;;;;;;;;;;;;;;;;;;;;;;;;;;;;;;;;;;;;;;;;;;;;;;;;;;;;;;;;;;;;;;;;;;;;;;;;;;;;;;;;;;;;;;;;;;;;;;;;;;;;;;;;;
2000;[4843] THIRLWALL M. F. (2000);samp. AN36;;CANARY ISLANDS / TENERIFE;ANAGA MASSIF;28.5;-16.3;28.5;-16.3;;;OUTCROP;;;SUBAERIAL;VOLCANIC ROCK;BENMOREITE;;;4200000;8000000;NEOGENE;;;;;;;MINERAL / COMPONENT (INCL. GROUNDMASS);CLINOPYROXENE;CPX2;;;PRIMARY;;;;;47.02;2.6;;;;6.35;0.57;;;;;;;;;;6.57;;22.47;12.99;0.12;;;;;;;;;;0.66;;;;;;;;;;;;;;;;;;;;;;;;;;;;;;;;;;;;;;;;;;;;;;;;;;;;;;;;;;;;;;;;;;;;;;;;;;;;;;;;;;;;;;;;;;;;;;;;;;;;;;;;;;;;;;;;;;;;;;;;;;;;;;;;;;;;;;;;;;;;;;;;;;;;;;;;;;;;;;;;;;;;;;;;;;;;;;;;;;;;;;;;;;;;;;;;;;;;;;;;;;;;;;;;;;;;;;;;;;;;;;;;;;;;;;;;;;;;;;;;;;;;;;;;;;;;;;;;;;;;;;;;;;;;
2000;[4843] THIRLWALL M. F. (2000);samp. AN36;;CANARY ISLANDS / TENERIFE;ANAGA MASSIF;28.5;-16.3;28.5;-16.3;;;OUTCROP;;;SUBAERIAL;VOLCANIC ROCK;BENMOREITE;;;4200000;8000000;NEOGENE;;;;;;;MINERAL / COMPONENT (INCL. GROUNDMASS);AMPHIBOLE;HB1;;;PRIMARY;;;;;38.47;5.44;;;;12.36;0.04;;;;;;;;;;13.01;;11.5;10.7;0.24;;;;;;0.98;EMP (EPMA);;;3.18;;;;;;;;;;;;;;;;;;;;;;;;;;;;;;;;;;;;;;;;;;;;;;;;;;;;;;;;;;;;;;;;;;;;;;;;;;;;;;;;;;;;;;;;;;;;;;;;;;;;;;;;;;;;;;;;;;;;;;;;;;;;;;;;;;;;;;;;;;;;;;;;;;;;;;;;;;;;;;;;;;;;;;;;;;;;;;;;;;;;;;;;;;;;;;;;;;;;;;;;;;;;;;;;;;;;;;;;;;;;;;;;;;;;;;;;;;;;;;;;;;;;;;;;;;;;;;;;;;;;;;;;;;;;
2000;[4843] THIRLWALL M. F. (2000);samp. AN36;;CANARY ISLANDS / TENERIFE;ANAGA MASSIF;28.5;-16.3;28.5;-16.3;;;OUTCROP;;;SUBAERIAL;VOLCANIC ROCK;BENMOREITE;;;4200000;8000000;NEOGENE;;;;;;;MINERAL / COMPONENT (INCL. GROUNDMASS);AMPHIBOLE;HB2;;;PRIMARY;;;;;38.35;5.53;;;;12.39;0.06;;;;;;;;;;12.98;;11.28;10.7;0.23;;;;;;1.01;EMP (EPMA);;;3.21;;;;;;;;;;;;;;;;;;;;;;;;;;;;;;;;;;;;;;;;;;;;;;;;;;;;;;;;;;;;;;;;;;;;;;;;;;;;;;;;;;;;;;;;;;;;;;;;;;;;;;;;;;;;;;;;;;;;;;;;;;;;;;;;;;;;;;;;;;;;;;;;;;;;;;;;;;;;;;;;;;;;;;;;;;;;;;;;;;;;;;;;;;;;;;;;;;;;;;;;;;;;;;;;;;;;;;;;;;;;;;;;;;;;;;;;;;;;;;;;;;;;;;;;;;;;;;;;;;;;;;;;;;;;
2000;[4843] THIRLWALL M. F. (2000);samp. AN36;;CANARY ISLANDS / TENERIFE;ANAGA MASSIF;28.5;-16.3;28.5;-16.3;;;OUTCROP;;;SUBAERIAL;VOLCANIC ROCK;BENMOREITE;;;4200000;8000000;NEOGENE;;;;;;;MINERAL / COMPONENT (INCL. GROUNDMASS);AMPHIBOLE;HB3;;;PRIMARY;;;;;38.8;5.11;;;;12.51;0.04;;;;;;;;;;12.97;;11.42;10.84;0.27;;;;;;;;;;3.15;;;;;;;;;;;;;;;;;;;;;;;;;;;;;;;;;;;;;;;;;;;;;;;;;;;;;;;;;;;;;;;;;;;;;;;;;;;;;;;;;;;;;;;;;;;;;;;;;;;;;;;;;;;;;;;;;;;;;;;;;;;;;;;;;;;;;;;;;;;;;;;;;;;;;;;;;;;;;;;;;;;;;;;;;;;;;;;;;;;;;;;;;;;;;;;;;;;;;;;;;;;;;;;;;;;;;;;;;;;;;;;;;;;;;;;;;;;;;;;;;;;;;;;;;;;;;;;;;;;;;;;;;;;;
2000;[4843] THIRLWALL M. F. (2000);samp. AN36;;CANARY ISLANDS / TENERIFE;ANAGA MASSIF;28.5;-16.3;28.5;-16.3;;;OUTCROP;;;SUBAERIAL;VOLCANIC ROCK;BENMOREITE;;;4200000;8000000;NEOGENE;;;;;;;MINERAL / COMPONENT (INCL. GROUNDMASS);AMPHIBOLE;HB4;;;PRIMARY;;;;;38.62;5.39;;;;12.53;;;;;;;;;;;12.86;;11.45;10.86;0.28;;;;;;0.97;EMP (EPMA);;;3.19;;;;;;;;;;;;;;;;;;;;;;;;;;;;;;;;;;;;;;;;;;;;;;;;;;;;;;;;;;;;;;;;;;;;;;;;;;;;;;;;;;;;;;;;;;;;;;;;;;;;;;;;;;;;;;;;;;;;;;;;;;;;;;;;;;;;;;;;;;;;;;;;;;;;;;;;;;;;;;;;;;;;;;;;;;;;;;;;;;;;;;;;;;;;;;;;;;;;;;;;;;;;;;;;;;;;;;;;;;;;;;;;;;;;;;;;;;;;;;;;;;;;;;;;;;;;;;;;;;;;;;;;;;;;
2000;[4843] THIRLWALL M. F. (2000);samp. AN36;;CANARY ISLANDS / TENERIFE;ANAGA MASSIF;28.5;-16.3;28.5;-16.3;;;OUTCROP;;;SUBAERIAL;VOLCANIC ROCK;BENMOREITE;;;4200000;8000000;NEOGENE;;;;;;;MINERAL / COMPONENT (INCL. GROUNDMASS);SPINEL;MT1;;;PRIMARY;;;;;0.31;14.73;;;;3.44;;;;;;;;;28.66;;41.97;;0.04;3.1;2.2;;;;;;;;;;1.4;;;;;;;;;;;;;;;;;;;;;;;;;;;;;;;;;;;;;;;;;;;;;;;;;;;;;;;;;;;;;;;;;;;;;;;;;;;;;;;;;;;;;;;;;;;;;;;;;;;;;;;;;;;;;;;;;;;;;;;;;;;;;;;;;;;;;;;;;;;;;;;;;;;;;;;;;;;;;;;;;;;;;;;;;;;;;;;;;;;;;;;;;;;;;;;;;;;;;;;;;;;;;;;;;;;;;;;;;;;;;;;;;;;;;;;;;;;;;;;;;;;;;;;;;;;;;;;;;;;;;;;;;;;;
2000;[4843] THIRLWALL M. F. (2000);samp. AN36;;CANARY ISLANDS / TENERIFE;ANAGA MASSIF;28.5;-16.3;28.5;-16.3;;;OUTCROP;;;SUBAERIAL;VOLCANIC ROCK;BENMOREITE;;;4200000;8000000;NEOGENE;;;;;;;MINERAL / COMPONENT (INCL. GROUNDMASS);SPINEL;MT2;;;PRIMARY;;;;;0.25;10.55;;;;1.97;0.06;;;;;;;;40.58;;37.78;;0.04;2.52;2.03;;;;;;;;;;1.33;;;;;;;;;;;;;;;;;;;;;;;;;;;;;;;;;;;;;;;;;;;;;;;;;;;;;;;;;;;;;;;;;;;;;;;;;;;;;;;;;;;;;;;;;;;;;;;;;;;;;;;;;;;;;;;;;;;;;;;;;;;;;;;;;;;;;;;;;;;;;;;;;;;;;;;;;;;;;;;;;;;;;;;;;;;;;;;;;;;;;;;;;;;;;;;;;;;;;;;;;;;;;;;;;;;;;;;;;;;;;;;;;;;;;;;;;;;;;;;;;;;;;;;;;;;;;;;;;;;;;;;;;;;;
2000;[4843] THIRLWALL M. F. (2000);samp. AN36;;CANARY ISLANDS / TENERIFE;ANAGA MASSIF;28.5;-16.3;28.5;-16.3;;;OUTCROP;;;SUBAERIAL;VOLCANIC ROCK;BENMOREITE;;;4200000;8000000;NEOGENE;;;;;;;MINERAL / COMPONENT (INCL. GROUNDMASS);SPINEL;MT3;;;PRIMARY;;;;;0.19;10.45;;;;1.63;0.02;;;;;;;;41.69;;37.44;;0.09;2.49;2.27;;;;;;;;;;1.33;;;;;;;;;;;;;;;;;;;;;;;;;;;;;;;;;;;;;;;;;;;;;;;;;;;;;;;;;;;;;;;;;;;;;;;;;;;;;;;;;;;;;;;;;;;;;;;;;;;;;;;;;;;;;;;;;;;;;;;;;;;;;;;;;;;;;;;;;;;;;;;;;;;;;;;;;;;;;;;;;;;;;;;;;;;;;;;;;;;;;;;;;;;;;;;;;;;;;;;;;;;;;;;;;;;;;;;;;;;;;;;;;;;;;;;;;;;;;;;;;;;;;;;;;;;;;;;;;;;;;;;;;;;;
2000;[4843] THIRLWALL M. F. (2000);samp. AN36;;CANARY ISLANDS / TENERIFE;ANAGA MASSIF;28.5;-16.3;28.5;-16.3;;;OUTCROP;;;SUBAERIAL;VOLCANIC ROCK;BENMOREITE;;;4200000;8000000;NEOGENE;;;;;;;MINERAL / COMPONENT (INCL. GROUNDMASS);AMPHIBOLE;;;;PRIMARY;;;;;;4.94;;;;;;;;;;;;;;;;;;;;;;;;;;;;;;;;;;;;;;;;;;;;;;;;;;126;;;;;;;;;;;;;;;;;21;EMP (EPMA);;;;147;EMP (EPMA);;;;;;;;;;;;;;;;;;;;;;;15;EMP (EPMA);;;;;;;;;;;;;1207;EMP (EPMA);;;;;80;EMP (EPMA);;;343;EMP (EPMA);;;146;EMP (EPMA);;;;;;;;;;;;;;;;;507;EMP (EPMA);;;50;EMP (EPMA);;;144;EMP (EPMA);;;27;140;EMP (EPMA);;;;;32;EMP (EPMA);;;9.18;EMP (EPMA);;;28;EMP (EPMA);;;3.7;EMP (EPMA);;;20;EMP (EPMA);;;3.4;7.5;EMP (EPMA);;;0.9;4.9;EMP (EPMA);;;0.71;11.9;9.1;;;;;;;0.32;EMP (EPMA);;;;;;0.26;EMP (EPMA);;;0;EMP (EPMA);;;;;;;;;;;;;;;;;;;;;;;;;;;;;;;;;;;;;;;;;;;;;;;;;;;;;;;;;;;;;;;;;;;;;;;;;;;;;;;;;;;;;
2000;[4843] THIRLWALL M. F. (2000);samp. AN36;;CANARY ISLANDS / TENERIFE;ANAGA MASSIF;28.5;-16.3;28.5;-16.3;;;OUTCROP;;;SUBAERIAL;VOLCANIC ROCK;BENMOREITE;;;4200000;8000000;NEOGENE;;;;;;;MINERAL / COMPONENT (INCL. GROUNDMASS);SPINEL;;;;PRIMARY;;;;;;10.48;;;;;;;;;;;;;;;;;;;;;;;;;;;;;;;;;;;;;;;;;;;;;;;;;;814;;;;;;;;;;;;;;;;;;;;;;652;EMP (EPMA);;;;;;;;;;;;;;;;;;;;;;;41;EMP (EPMA);;;;;;;;;;;;;16;EMP (EPMA);;;;;5;EMP (EPMA);;;204;EMP (EPMA);;;139;EMP (EPMA);;;;;;;;;;;;;;;;;1.2;EMP (EPMA);;;9.3;EMP (EPMA);;;18;EMP (EPMA);;;2.6;11;EMP (EPMA);;;;;2.2;EMP (EPMA);;;0.47;EMP (EPMA);;;1.3;EMP (EPMA);;;0.25;EMP (EPMA);;;1.4;EMP (EPMA);;;0.25;0.42;EMP (EPMA);;;0.1;0.28;EMP (EPMA);;;0.08;4.2;5.4;;;;;;;0.94;EMP (EPMA);;;;;;0.28;EMP (EPMA);;;0.08;EMP (EPMA);;;;;;;;;;;;;;;;;;;;;;;;;;;;;;;;;;;;;;;;;;;;;;;;;;;;;;;;;;;;;;;;;;;;;;;;;;;;;;;;;;;;;
2000;[4843] THIRLWALL M. F. (2000);samp. AN36;;CANARY ISLANDS / TENERIFE;ANAGA MASSIF;28.5;-16.3;28.5;-16.3;;;OUTCROP;;;SUBAERIAL;VOLCANIC ROCK;BENMOREITE;;;4200000;8000000;NEOGENE;;;;;;;MINERAL / COMPONENT (INCL. GROUNDMASS);CLINOPYROXENE;;PHENOCRYST;;PRIMARY;;;;;;1.54;;;;;0.5;;;;;;;;;;;;;;;;;;;;;;;;;;;;;;;;;;;;;;;;;;;;;;;;;;;;;;;;;;;;;;106;EMP (EPMA);;;;182;EMP (EPMA);;;;;;;;;;;125;EMP (EPMA);;;;;;;;;;;6;EMP (EPMA);;;;;;;;;;;;;62;EMP (EPMA);;;;;9.5;EMP (EPMA);;;38;EMP (EPMA);;;0.4;EMP (EPMA);;;;;;;;;;;;;;;;;0.13;EMP (EPMA);;;2;EMP (EPMA);;;6.9;EMP (EPMA);;;1.5;8.3;EMP (EPMA);;;;;2.8;EMP (EPMA);;;1;EMP (EPMA);;;3.1;EMP (EPMA);;;0.44;EMP (EPMA);;;2.6;EMP (EPMA);;;0.47;0.95;EMP (EPMA);;;0.13;0.7;EMP (EPMA);;;0.11;2;0.07;;;;;;;0;EMP (EPMA);;;;;;0.07;EMP (EPMA);;;0;EMP (EPMA);;;;;;;;;;;;;;;;;;;;;;;;;;;;;;;;;;;;;;;;;;;;;;;;;;;;;;;;;;;;;;;;;;;;;;;;;;;;;;;;;;;;;
1990;[4932] NELSON S. A. (1990);samp. 50;;MEXICAN VOLCANIC BELTS / TRANS MEXICAN VOLCANIC BELT / NAYARIT / LAS NAVAJAS;PRE-CALDERA STAGE;21.5;-104.58;21.58;-104.83;;;OUTCROP;;;SUBAERIAL;VOLCANIC ROCK;BENMOREITE;SPARSELY PORPHYRITIC;;;;;;;;;;;WHOLE ROCK;;;;;;;;;;59.2;0.9;;;;16.3;;;;;;;;;;8.48;;;4;0.9;0.23;;;;;;2.83;XRF;;;5.1;0.41;;;;;;;;;;;;0.14;;;;;;;;;;;;;;;;;;;;;;;;;;;;;;;;;;;;;;;;;;13;XRF;;;22;XRF;;;142;XRF;;;;;;;;;;;44;XRF;;;;;398;XRF;;;;;67;XRF;;;438;XRF;;;;;;;;;;;;;;;;;;;;;1259;XRF;;;53;XRF;;;94;XRF;;;;;;;;;;;;;;;;;;;;;;;;;;;;;;;;;;;;;;;;;;;;;;;;;;;;;;;;;;;;;;;;;;;;;;;;;;;;;;;;;;;;;;;;;;;;;;;;;;;;;;;;;;;;;;;;;;;;;;;;;;;;;;;;;;;;;;;;;;;;;;;;;;
1990;[4932] NELSON S. A. (1990);samp. 142;;MEXICAN VOLCANIC BELTS / TRANS MEXICAN VOLCANIC BELT / NAYARIT / LAS NAVAJAS;POST-CALDERA STAGE;21.5;-104.58;21.58;-104.83;;;OUTCROP;;;SUBAERIAL;VOLCANIC ROCK;BENMOREITE;SPARSELY PORPHYRITIC;;;;;;;;;;;WHOLE ROCK;;;;;;;;;;57.7;1.35;;;;17.3;;;;;;;;;;7.15;;;6.29;2.49;0.18;;;;;;1.65;XRF;;;5;0.46;;;;;;;;;;;;0.28;;;;;;;;;;;;;;;;;;;;;;;;;;;;;;;;;;;;;;;;;;13;XRF;;;27;XRF;;;95;XRF;;;;;;;;;;;15;XRF;;;;;727;XRF;;;;;27;XRF;;;176;XRF;;;;;;;;;;;;;;;;;;;;;628;XRF;;;21;XRF;;;40;XRF;;;;;;;;;;;;;;;;;;;;;;;;;;;;;;;;;;;;;;;;;;;;;;;;;;;;;;;;;;;;;;;;;;;;;;;;;;;;;;;;;;;;;;;;;;;;;;;;;;;;;;;;;;;;;;;;;;;;;;;;;;;;;;;;;;;;;;;;;;;;;;;;;;
1970;[5050] AOKI K.-I. (1970);samp. 11;;IZU-BONIN ARC / BONIN ARC / IWOJIMA/IO-SIMA/IOTO / SURIBACHI;SURIBACHI-YAMA;24.77;141.33;24.77;141.33;;;OUTCROP;;;SUBAERIAL;VOLCANIC ROCK;BENMOREITE;;CRYSTAL LAPILLI FROM BENMOREITE SCORIA-FALL;;;CENOZOIC;;;;;;;MINERAL / COMPONENT (INCL. GROUNDMASS);ANDESINE;;PHENOCRYST;;PRIMARY;;;;;58.49;;;;;25.61;;;;;;;;;0.3;;0.44;;7.31;0.12;;;;;;;0.9;NOT;;;6.69;;;;;;;;;;;;;;;;;;;;;;;;;;;;;;;;;;;;;;;;;;;;;;;;;;;;;;;;;;;;;;;;;;;;;;;;;;;;;;;;;;;;;;;;;;;;;;;;;;;;;;;;;;;;;;;;;;;;;;;;;;;;;;;;;;;;;;;;;;;;;;;;;;;;;;;;;;;;;;;;;;;;;;;;;;;;;;;;;;;;;;;;;;;;;;;;;;;;;;;;;;;;;;;;;;;;;;;;;;;;;;;;;;;;;;;;;;57.7;36.9;;;;;;;;;;;;;5.4;;;;;;;;;;;;;;;;;;;;
1970;[5050] AOKI K.-I. (1970);samp. 12;;IZU-BONIN ARC / BONIN ARC / IWOJIMA/IO-SIMA/IOTO / SURIBACHI;SURIBACHI-YAMA;24.77;141.33;24.77;141.33;;;OUTCROP;;;SUBAERIAL;VOLCANIC ROCK;BENMOREITE;;OBSIDIAN;;;CENOZOIC;;;;;;;MINERAL / COMPONENT (INCL. GROUNDMASS);ANDESINE;;PHENOCRYST;;PRIMARY;;;;;58.73;;;;;25.41;;;;;;;;;0.64;;0.17;;7.13;;;;;;;;0.94;NOT;;;6.73;;;;;;;;;;;;;;;;;;;;;;;;;;;;;;;;;;;;;;;;;;;;;;;;;;;;;;;;;;;;;;;;;;;;;;;;;;;;;;;;;;;;;;;;;;;;;;;;;;;;;;;;;;;;;;;;;;;;;;;;;;;;;;;;;;;;;;;;;;;;;;;;;;;;;;;;;;;;;;;;;;;;;;;;;;;;;;;;;;;;;;;;;;;;;;;;;;;;;;;;;;;;;;;;;;;;;;;;;;;;;;;;;;;;;;;;;;58.2;36.1;;;;;;;;;;;;;5.7;;;;;;;;;;;;;;;;;;;;
1976;[5431] SMITH I. E. M. (1976);samp. 33708;;BISMARCK ARC - NEW BRITAIN ARC / BISMARCK ARC - NEW BRITAIN ARC / D^ENTRECASTEAUX ISLANDS;EASTERN DOBU ISLAND;-9;150;-10.5;151;;;OUTCROP;;;SUBAERIAL;VOLCANIC ROCK;BENMOREITE;;INCLUSION IN COMENDITE;;;;;;;;;;WHOLE ROCK;;;;;;;;;;54.22;1.62;;;;15.65;;;;;;;;;3.96;;3.85;;7.89;5.04;0.14;;;;;;1.14;XRF;;;4.31;0.27;;;0.38;0.71;0.17;;;;;;;;;;;;;;;;;;;;;;;;;;;;;;;;;;;;;;;;;;;;;;;;;;;;;;;;;;;;;;;;;;;;;;;;;;;;;;;;;;;;;;;;;;;;;;;;;;;;;;;;;;;;;;;;;;;;;;;;;;;;;;;;;;;;;;;;;;;;;;;;;;;;;;;;;;;;;;;;;;;;;;;;;;;;;;;;;;;;;;;;;;;;;;;;;;;;;;;;;;;;;;;;;;;;;;;;;;;;;;;;;;;;;;;;;;;;;;;;;;;;;;;;;;;;;;;;;;;;;;
1976;[5431] SMITH I. E. M. (1976);samp. 33709;;BISMARCK ARC - NEW BRITAIN ARC / BISMARCK ARC - NEW BRITAIN ARC / D^ENTRECASTEAUX ISLANDS;SANAROA ISLAND;-9;150;-10.5;151;;;OUTCROP;;;SUBAERIAL;VOLCANIC ROCK;BENMOREITE;;LAVA BLOCK;;;;;;;;;;WHOLE ROCK;;;;;;;;;;54.93;2.3;;;;15.3;;;;;;;;;2.38;;6.15;;6;3.01;0.16;;;;;;1.49;XRF;;;5.21;0.72;;;0.62;0.61;0.89;;;;;;;;;;;;;;;;;;;;;;;;;;;;;;;;;;;;;;;;;;;;;;;;;;;;;;;;;;;;;;;;;;;;;;;;;;;;;;;;;;;;;;;;;;;;;;;;;;;;;;;;;;;;;;;;;;;;;;;;;;;;;;;;;;;;;;;;;;;;;;;;;;;;;;;;;;;;;;;;;;;;;;;;;;;;;;;;;;;;;;;;;;;;;;;;;;;;;;;;;;;;;;;;;;;;;;;;;;;;;;;;;;;;;;;;;;;;;;;;;;;;;;;;;;;;;;;;;;;;;;
1977;[5460] CARTER S. R. (1977);samp. SCVB2;;ETNA/SICILY;;37.73;15;37.73;15;;;OUTCROP;;;SUBAERIAL;VOLCANIC ROCK;BENMOREITE;;;;;HOLOCENE;;;;;;;WHOLE ROCK;;;;;;;;;;;;;;;;;;;;;;;;;;;;;;;;;;;;3.3;XRF;;;;;;;;;;;;;;;;;;;;;;;;;;;;;;;;;;;;;;;;;;;;;;;;;;;;;;;;;;;;;;;;;;;;;;;;;;;;;;71;XRF;;;;;698;XRF;;;;;;;;;;;;;;;;;;;;;;;;;;;;;;;;;;;;;;;;;;;;;;;;;;;;;;;;;;;;;;;;;;;;;;;;;;;;;;;;;;;;;;;;;;;;;;;;;;;;;;;;;;;;;0.70398;;;;;;;;;;;;;;;;;;;;;;;;;;;;;;;;;;;;;;;;;;;;;;;;;;;;;;;;;;;;;;;;;;;;;;;;;;;;;
1977;[5460] CARTER S. R. (1977);samp. SCNS;;ETNA/SICILY;;37.73;15;37.73;15;;;OUTCROP;;;SUBAERIAL;VOLCANIC ROCK;BENMOREITE;;;;;HOLOCENE;;;;;;;WHOLE ROCK;;;;;;;;;;;;;;;;;;;;;;;;;;;;;;;;;;;;3.07;XRF;;;;;;;;;;;;;;;;;;;;;;;;;;;;;;;;;;;;;;;;;;;;;;;;;;;;;;;;;;;;;;;;;;;;;;;;;;;;;;65;XRF;;;;;702;XRF;;;;;;;;;;;;;;;;;;;;;;;;;;;;;;;;;;;;;;;;;;;;;;;;;;;;;;;;;;;;;;;;;;;;;;;;;;;;;;;;;;;;;;;;;;;;;;;;;;;;;;;;;;;;;0.70355;;;;;;;;;;;;;;;;;;;;;;;;;;;;;;;;;;;;;;;;;;;;;;;;;;;;;;;;;;;;;;;;;;;;;;;;;;;;;
2002;[6181] DAVIS A. S. (2002);samp. SO33-D71-7;;LINE ISLANDS CHAIN / UNNAMED SEAMOUNT (LINE ISLANDS CHAIN) / DREDGE 71;;20.2233;-170.6217;20.2233;-170.6217;-1740;-2220;DREDGE;;;SUBAQUATIC;VOLCANIC ROCK;BENMOREITE;;;;;;;;;;;;MINERAL / COMPONENT (INCL. GROUNDMASS);PLAGIOCLASE;;;;PRIMARY;;;;;;;;;;;;;;;;;;;;;;;;;;;;;;;;;;;;;;;;;;;;;;;;;;;;;;;;;;;;;;;;;;;;;;;;;;;;;;;;;;;;;;;;;;;;;;;;;;;;;;;;;;;;;;;;;;;;;;;;;;;;;;;;;;;;;;;;;;;;;;;;;;;;;;;;;;;;;;;;;;;;;;;;;;;;;;;;;;;;;;;;;;;;;;;;;;;;;;;;;;;;;;;;;;;;;;;;;;;;;;;;;;;;;;;;;;;;;;;;;;;;;;;;;;;;;;;;;;;;;;;;;;;;;;;;;;;;;;;;;;;;;;;;;;;;;;;73.59;AR-AR;73.32;AR-AR;;;;;
2002;[6181] DAVIS A. S. (2002);samp. SO33-D71-6;;LINE ISLANDS CHAIN / UNNAMED SEAMOUNT (LINE ISLANDS CHAIN) / DREDGE 71;;20.2233;-170.6217;20.2233;-170.6217;-1740;-2220;DREDGE;;;SUBAQUATIC;VOLCANIC ROCK;BENMOREITE;;;;;;;;;;;;MINERAL / COMPONENT (INCL. GROUNDMASS);PLAGIOCLASE;;;;PRIMARY;;;;;;;;;;;;;;;;;;;;;;;;;;;;;;;;;;;;;;;;;;;;;;;;;;;;;;;;;;;;;;;;;;;;;;;;;;;;;;;;;;;;;;;;;;;;;;;;;;;;;;;;;;;;;;;;;;;;;;;;;;;;;;;;;;;;;;;;;;;;;;;;;;;;;;;;;;;;;;;;;;;;;;;;;;;;;;;;;;;;;;;;;;;;;;;;;;;;;;;;;;;;;;;;;;;;;;;;;;;;;;;;;;;;;;;;;;;;;;;;;;;;;;;;;;;;;;;;;;;;;;;;;;;;;;;;;;;;;;;;;;;;;;;;;;;;;;;73.23;AR-AR;;;;;;;