Year;CITATION;SAMPLE NAME;UNIQUE_ID;LOCATION;LOCATION COMMENT;LATITUDE (MIN.);LONGITUDE (MIN.);LATITUDE (MAX.);LONGITUDE (MAX.);ELEVATION (MIN.);ELEVATION (MAX.);SAMPLING TECHNIQUE;DRILLING DEPTH (MIN.);DRILLING DEPTH (MAX.);LAND/SEA (SAMPLING);ROCK TYPE;ROCK NAME;ROCK TEXTURE;SAMPLE COMMENT;AGE (MIN.);AGE (MAX.);GEOLOGICAL AGE;GEOLOGICAL AGE PREFIX;ERUPTION DAY;ERUPTION MONTH;ERUPTION YEAR;ALTERATION;ALTERATION TYPE;TYPE OF MATERIAL;MINERAL / COMPONENT;SPOT (MINERAL);CRYSTAL;RIM / CORE (MINERAL GRAINS);PRIMARY/SECONDARY;INCLUSION TYPE;MINERAL (INCLUSION);HOSTMINERAL (INCLUSION);HEATING;SIO2(WT%);TIO2(WT%);ZRO2(WT%);HFO2(WT%);THO2(WT%);AL2O3(WT%);CR2O3(WT%);LA2O3(WT%);CE2O3(WT%);ND2O3(WT%);SM2O3(WT%);V2O3(WT%);NB2O5(WT%);FE2O3T(WT%);FE2O3(WT%);FEOT(WT%);FEO(WT%);FET(WT%);CAO(WT%);MGO(WT%);MNO(WT%);BAO(WT%);SRO(WT%);NIO(WT%);ZNO(WT%);RB2O(WT%);K2O(WT%);;;;NA2O(WT%);P2O5(WT%);AS2O5(WT%);H2O(WT%);H2OP(WT%);H2OM(WT%);CO2(WT%);C(WT%);F(WT%);CL(WT%);OH(WT%);SO3(WT%);S(WT%);LOI(WT%);TI(WT%);CA(WT%);K(WT%);LI(PPM);BE(PPM);B(PPM);F(PPM);P(PPM);S(PPM);CL(PPM);AR40(AT/G);;;;AR40(CCMSTP/G);;;;AR40(MOL/G);;;;AR40(PPB);K(PPM);SC(PPM);;;;TI(PPM);V(PPM);;;;CR(PPM);;;;CO(PPM);;;;NI(PPM);;;;CU(PPM);;;;ZN(PPM);;;;GA(PPM);;;;GE(PPM);AS(PPM);AS(PPB);SE(PPM);RB(PPM);;;;;;SR(PPM);;;;;;Y(PPM);;;;ZR(PPM);;;;NB(PPM);;;;MO(PPM);AG(PPM);CD(PPM);IN(PPM);SN(PPM);SB(PPM): altern. values or methods;;;;TE(PPM);CS(PPM): altern. values or methods;;;;BA(PPM): altern. values or methods;;;;LA(PPM): altern. values or methods;;;;CE(PPM): altern. values or methods;;;;PR(PPM);ND(PPM): altern. values or methods;;;;;;SM(PPM): altern. values or methods;;;;EU(PPM): altern. values or methods;;;;GD(PPM): altern. values or methods;;;;TB(PPM): altern. values or methods;;;;DY(PPM): altern. values or methods;;;;HO(PPM);ER(PPM): altern. values or methods;;;;TM(PPM);YB(PPM): altern. values or methods;;;;LU(PPM);HF(PPM);TA(PPM);W(PPM);RE(PPM);AU(PPM);HG(PPM);HG(PPB);TL(PPM);PB(PPM): altern. values or methods;;;;BI(PPM);PO210_ACT(DPM/G);RA226_ACT(DPM/G);TH(PPM): altern. values or methods;;;;U(PPM): altern. values or methods;;;;ND143_ND144;ND143_ND144_INI;EPSILON_ND;EPSILON_ND_INI;SM147_ND144;SR87_SR86;SR87_SR86_INI;EPSILON_SR_INI;RB87_SR86;PB206_PB204: altern. values or methods;;;;PB206_PB204_INI;PB207_PB204: altern. values or methods;;;;PB207_PB204_INI;PB207_PB206;PB208_PB204: altern. values or methods;;;;PB208_PB204_INI;PB208_PB206;HF176_HF177;LU176_HF177;AR38_AR36;AR40_AR36;AR40_AR36_INI;PB206_U238;PB207_U235;RA226_TH230_ACT;PA231_U235_ACT;TH230_TH232_ACT;TH230_U238_ACT;TH232_PB204;U234_U238_ACT;U235_PB204;U238_PB204;U238_TH232_ACT;D7LI(VS LSVEC);D13C(VS PDB);D18O(PER MIL);D18O(VS SMOW);D18O(VS VSMOW);D34S(VS VCDT);ALBITE(MOL%);ANORTHITE(MOL%);CA OLIVINE(MOL%);CHROMITE(MOL%);ENSTATITE(MOL%);FAYALITE(MOL%);FORSTERITE(MOL%);FERROSILITE(MOL%);HEMATITE(MOL%);HERCYNITE(MOL%);ILMENITE(MOL%);MAGNESIOFERRITE(MOL%);MONTICELLITE(MOL%);MAGNETITE(MOL%);ORTHOCLASE(MOL%);PICROCHROMITE(MOL%);SPINEL(MOL%);TEPHROITE(MOL%);ULVOSPINEL(MOL%);WOLLASTONITE(MOL%);AGE(KA): altern. values or methods;;;;;;AGE(MA): altern. values or methods;;;;;;AGE_PB207_U235(MA);AGE_PB206_U238(MA);
2012;[16433] TAGLIANI S. (2012);samp. 5l;;ETNA/SICILY / ELLITTICO SEQUENCE;MT. CALVARIO DOME;37.65;14.87;37.65;14.87;;;OUTCROP;;;SUBAERIAL;VOLCANIC ROCK;BENMOREITE;;MASSIVE LAVA;;;QUATERNARY;;;;;;;WHOLE ROCK;;;;;;;;;;58.79;1.38;;;;17.69;;;;;;;;;6.39;;0.6;;5.46;2.16;0.16;;;;;;2.14;ICPMS;;;4.74;0.68;;;;;;;;0.23;;;;0.34;;;;;;;1000;;;;;;;;;;;;;;;;;;14;ICPMS;;;;111;ICPMS;;;;;;;11;ICPMS;;;;;;;;;;;;;;;;;;;;;;;61;ICPMS;;;;;1106;ICPMS;;;;;32;ICPMS;;;380;ICPMS;;;102;ICPMS;;;;;;;;;;;;;1.4;ICPMS;;;1222;ICPMS;;;129;ICPMS;;;229;ICPMS;;;23.2;84.5;ICPMS;;;;;14.3;ICPMS;;;4.03;ICPMS;;;11;ICPMS;;;;;;;7.2;ICPMS;;;;3.5;ICPMS;;;0.48;3.1;ICPMS;;;0.41;8.4;4.9;3;;;;;0.1;16;ICPMS;;;3;;;16.6;ICPMS;;;4.8;ICPMS;;;;;;;;;;;;;;;;;;;;;;;;;;;;;;;;;;;;;;;;;;;;;;;;;;;;;;;;;;;;;;;;;;;;;;;;;;;;;;;;;;;;;
2012;[16433] TAGLIANI S. (2012);samp. 6l;;ETNA/SICILY / ELLITTICO SEQUENCE;MT. CALVARIO DOME;37.65;14.87;37.65;14.87;;;OUTCROP;;;SUBAERIAL;VOLCANIC ROCK;BENMOREITE;;MASSIVE LAVA;;;QUATERNARY;;;;;;;WHOLE ROCK;;;;;;;;;;58.3;1.39;;;;17.57;;;;;;;;;5.9;;1.13;;5.35;2.23;0.16;;;;;;2.02;ICPMS;;;5;0.69;;;;;;;;0.04;;;;0.18;;;;;;;800;;;;;;;;;;;;;;;;;;15;ICPMS;;;;110;ICPMS;;;;;;;11;ICPMS;;;;;;;;;;;;;;;;;;;;;;;61;ICPMS;;;;;1088;ICPMS;;;;;32;ICPMS;;;381;ICPMS;;;99;ICPMS;;;;;;;;;;;;;1.1;ICPMS;;;1227;ICPMS;;;127;ICPMS;;;227;ICPMS;;;22.9;84.5;ICPMS;;;;;14.1;ICPMS;;;3.89;ICPMS;;;11;ICPMS;;;;;;;7.1;ICPMS;;;;3.4;ICPMS;;;0.49;3.1;ICPMS;;;0.42;8.2;4.8;1;;;;;0.2;10;ICPMS;;;1;;;16.5;ICPMS;;;4.7;ICPMS;;;;;;;;;;;;;;;;;;;;;;;;;;;;;;;;;;;;;;;;;;;;;;;;;;;;;;;;;;;;;;;;;;;;;;;;;;;;;;;;;;;;;
2012;[16433] TAGLIANI S. (2012);samp. 8L;;ETNA/SICILY / ELLITTICO SEQUENCE;MT. CALVARIO DOME;37.65;14.87;37.65;14.87;;;OUTCROP;;;SUBAERIAL;VOLCANIC ROCK;BENMOREITE;;MASSIVE LAVA;;;QUATERNARY;;;;;;;WHOLE ROCK;;;;;;;;;;57.23;1.42;;;;17.78;;;;;;;;;5.1;;2.12;;5.35;2.17;0.17;;;;;;2.28;ICPMS;;;5.37;0.63;;;;;;;;0.01;;;;0.21;;;;;;;500;;;;;;;;;;;;;;;;;;13;ICPMS;;;;103;ICPMS;;;;;;;11;ICPMS;;;;;;;;;;;;;;;;;;;;;;;60;ICPMS;;;;;1106;ICPMS;;;;;30;ICPMS;;;365;ICPMS;;;97;ICPMS;;;;;;;;;;;;;0.8;ICPMS;;;1231;ICPMS;;;126;ICPMS;;;227;ICPMS;;;23;83.9;ICPMS;;;;;14.2;ICPMS;;;3.92;ICPMS;;;10.8;ICPMS;;;;;;;7.1;ICPMS;;;;3.4;ICPMS;;;0.49;3.1;ICPMS;;;0.44;8.3;4.8;1;;;;;0.1;22;ICPMS;;;0.8;;;16.4;ICPMS;;;4.6;ICPMS;;;;;;;;;;;;;;;;;;;;;;;;;;;;;;;;;;;;;;;;;;;;;;;;;;;;;;;;;;;;;;;;;;;;;;;;;;;;;;;;;;;;;
2012;[16433] TAGLIANI S. (2012);samp. 9L;;ETNA/SICILY / ELLITTICO SEQUENCE;MT. CALVARIO DOME;37.65;14.87;37.65;14.87;;;OUTCROP;;;SUBAERIAL;VOLCANIC ROCK;BENMOREITE;;MASSIVE LAVA;;;QUATERNARY;;;;;;;WHOLE ROCK;;;;;;;;;;56.76;1.44;;;;17.8;;;;;;;;;6.12;;1.03;;5.84;2.22;0.16;;;;;;2.4;ICPMS;;;5.14;0.64;;;;;;;;0.14;;;;0.23;;;;;;;800;;;;;;;;;;;;;;;;;;14;ICPMS;;;;108;ICPMS;;;;;;;11;ICPMS;;;;;;;;;;;;;;;;;;;;;;;62;ICPMS;;;;;1092;ICPMS;;;;;32;ICPMS;;;385;ICPMS;;;102;ICPMS;;;;;;;;;;;;;1.1;ICPMS;;;1239;ICPMS;;;126;ICPMS;;;227;ICPMS;;;23.2;84.8;ICPMS;;;;;14.5;ICPMS;;;3.95;ICPMS;;;10.7;ICPMS;;;;;;;7.1;ICPMS;;;;3.4;ICPMS;;;0.49;3.1;ICPMS;;;0.43;8.4;4.9;2;;;;;0.1;22;ICPMS;;;2.3;;;16.7;ICPMS;;;4.8;ICPMS;;;;;;;;;;;;;;;;;;;;;;;;;;;;;;;;;;;;;;;;;;;;;;;;;;;;;;;;;;;;;;;;;;;;;;;;;;;;;;;;;;;;;
2012;[16433] TAGLIANI S. (2012);samp. 10L;;ETNA/SICILY / ELLITTICO SEQUENCE;MT. CALVARIO DOME;37.65;14.87;37.65;14.87;;;OUTCROP;;;SUBAERIAL;VOLCANIC ROCK;BENMOREITE;;MASSIVE LAVA;;;QUATERNARY;;;;;;;WHOLE ROCK;;;;;;;;;;56.75;1.44;;;;17.84;;;;;;;;;3.96;;3.06;;5.57;2.3;0.16;;;;;;2.32;ICPMS;;;5.61;0.65;;;;;;;;0.09;;;;0.39;;;;;;;600;;;;;;;;;;;;;;;;;;12;ICPMS;;;;98;ICPMS;;;;;;;11;ICPMS;;;;;;;;;;;;;;;;;;;;;;;57;ICPMS;;;;;1119;ICPMS;;;;;31;ICPMS;;;350;ICPMS;;;97;ICPMS;;;;;;;;;;;;;0.6;ICPMS;;;1239;ICPMS;;;126;ICPMS;;;225;ICPMS;;;22.9;84;ICPMS;;;;;14.2;ICPMS;;;3.97;ICPMS;;;10.7;ICPMS;;;;;;;7.1;ICPMS;;;;3.4;ICPMS;;;0.48;3.1;ICPMS;;;0.43;8.2;4.8;1;;;;;0;10;ICPMS;;;0.6;;;16.3;ICPMS;;;4.7;ICPMS;;;;;;;;;;;;;;;;;;;;;;;;;;;;;;;;;;;;;;;;;;;;;;;;;;;;;;;;;;;;;;;;;;;;;;;;;;;;;;;;;;;;;
2012;[16433] TAGLIANI S. (2012);samp. 17L;;ETNA/SICILY / ELLITTICO SEQUENCE;MT. CALVARIO DOME;37.65;14.87;37.65;14.87;;;OUTCROP;;;SUBAERIAL;VOLCANIC ROCK;BENMOREITE;;MASSIVE LAVA;;;QUATERNARY;;;;;;;WHOLE ROCK;;;;;;;;;;57.27;1.44;;;;17.51;;;;;;;;;6.04;;0.87;;5.51;2.17;0.16;;;;;;2.51;ICPMS;;;5.5;0.63;;;;;;;;0.16;;;;0.33;;;;;;;1000;;;;;;;;;;;;;;;;;;13;ICPMS;;;;85;ICPMS;;;;;;;10;ICPMS;;;;;;;;;;;;;;;;;;;;;;;60;ICPMS;;;;;1085;ICPMS;;;;;32;ICPMS;;;353;ICPMS;;;98;ICPMS;;;;;;;;;;;;;1.4;ICPMS;;;1266;ICPMS;;;127;ICPMS;;;229;ICPMS;;;23.3;84.9;ICPMS;;;;;14.5;ICPMS;;;3.99;ICPMS;;;11;ICPMS;;;;;;;7.3;ICPMS;;;;3.4;ICPMS;;;0.5;3.1;ICPMS;;;0.45;8.3;4.8;2;;;;;0.1;20;ICPMS;;;3;;;16.6;ICPMS;;;4.7;ICPMS;;;;;;;;;;;;;;;;;;;;;;;;;;;;;;;;;;;;;;;;;;;;;;;;;;;;;;;;;;;;;;;;;;;;;;;;;;;;;;;;;;;;;
2012;[16433] TAGLIANI S. (2012);samp. 18L;;ETNA/SICILY / ELLITTICO SEQUENCE;MT. CALVARIO DOME;37.65;14.87;37.65;14.87;;;OUTCROP;;;SUBAERIAL;VOLCANIC ROCK;BENMOREITE;;MASSIVE LAVA;;;QUATERNARY;;;;;;;WHOLE ROCK;;;;;;;;;;57.06;1.47;;;;17.78;;;;;;;;;5.95;;0.88;;5.48;2.28;0.17;;;;;;2.36;ICPMS;;;5.64;0.65;;;;;;;;0.1;;;;0.31;;;;;;;600;;;;;;;;;;;;;;;;;;12;ICPMS;;;;93;ICPMS;;;;;;;10;ICPMS;;;;;;;;;;;;;;;;;;;;;;;60;ICPMS;;;;;1093;ICPMS;;;;;32;ICPMS;;;367;ICPMS;;;100;ICPMS;;;;;;;;;;;;;1.1;ICPMS;;;1269;ICPMS;;;124;ICPMS;;;225;ICPMS;;;22.9;84.2;ICPMS;;;;;14.3;ICPMS;;;3.91;ICPMS;;;10.5;ICPMS;;;;;;;7;ICPMS;;;;3.4;ICPMS;;;0.49;3.1;ICPMS;;;0.42;8.3;4.8;2;;;;;0;13;ICPMS;;;0.9;;;16.4;ICPMS;;;4.8;ICPMS;;;;;;;;;;;;;;;;;;;;;;;;;;;;;;;;;;;;;;;;;;;;;;;;;;;;;;;;;;;;;;;;;;;;;;;;;;;;;;;;;;;;;
2012;[16433] TAGLIANI S. (2012);samp. 21L;;ETNA/SICILY / ELLITTICO SEQUENCE;MT. CALVARIO DOME;37.65;14.87;37.65;14.87;;;OUTCROP;;;SUBAERIAL;VOLCANIC ROCK;BENMOREITE;;MASSIVE LAVA;;;QUATERNARY;;;;;;;WHOLE ROCK;;;;;;;;;;57.01;1.45;;;;17.82;;;;;;;;;6.52;;0.76;;5.51;2.29;0.76;;;;;;2.21;ICPMS;;;5.34;0.68;;;;;;;;0.14;;;;0.28;;;;;;;1200;;;;;;;;;;;;;;;;;;13;ICPMS;;;;103;ICPMS;;;;;;;11;ICPMS;;;;;;;;;;;;;;;;;;;;;;;60;ICPMS;;;;;1106;ICPMS;;;;;32;ICPMS;;;375;ICPMS;;;97;ICPMS;;;;;;;;;;;;;1.8;ICPMS;;;1242;ICPMS;;;125;ICPMS;;;224;ICPMS;;;22.7;83.5;ICPMS;;;;;14.3;ICPMS;;;3.84;ICPMS;;;10.8;ICPMS;;;;;;;7.1;ICPMS;;;;3.5;ICPMS;;;0.49;3.1;ICPMS;;;0.44;8.4;4.8;2;;;;;0.2;12;ICPMS;;;1.2;;;16.5;ICPMS;;;4.8;ICPMS;;;;;;;;;;;;;;;;;;;;;;;;;;;;;;;;;;;;;;;;;;;;;;;;;;;;;;;;;;;;;;;;;;;;;;;;;;;;;;;;;;;;;
2012;[16433] TAGLIANI S. (2012);samp. 22L;;ETNA/SICILY / ELLITTICO SEQUENCE;MT. CALVARIO DOME;37.65;14.87;37.65;14.87;;;OUTCROP;;;SUBAERIAL;VOLCANIC ROCK;BENMOREITE;;MASSIVE LAVA;;;QUATERNARY;;;;;;;WHOLE ROCK;;;;;;;;;;57.49;1.45;;;;17.71;;;;;;;;;5.63;;1.8;;5.34;2.18;1.8;;;;;;2.14;ICPMS;;;5.12;0.66;;;;;;;;0.09;;;;0.33;;;;;;;1000;;;;;;;;;;;;;;;;;;14;ICPMS;;;;110;ICPMS;;;;;;;11;ICPMS;;;;;;;;;;;;;;;;;;;;;;;57;ICPMS;;;;;1094;ICPMS;;;;;33;ICPMS;;;389;ICPMS;;;101;ICPMS;;;;;;;;;;;;;1.1;ICPMS;;;1237;ICPMS;;;130;ICPMS;;;231;ICPMS;;;23.3;86;ICPMS;;;;;14.5;ICPMS;;;4.06;ICPMS;;;11.4;ICPMS;;;;;;;7.2;ICPMS;;;;3.5;ICPMS;;;0.5;3.2;ICPMS;;;0.43;8.6;5;2;;;;;0;11;ICPMS;;;0.8;;;17.3;ICPMS;;;5;ICPMS;;;;;;;;;;;;;;;;;;;;;;;;;;;;;;;;;;;;;;;;;;;;;;;;;;;;;;;;;;;;;;;;;;;;;;;;;;;;;;;;;;;;;
2012;[16433] TAGLIANI S. (2012);samp. 25L;;ETNA/SICILY / ELLITTICO SEQUENCE;MT. CALVARIO DOME;37.65;14.87;37.65;14.87;;;OUTCROP;;;SUBAERIAL;VOLCANIC ROCK;BENMOREITE;;MASSIVE LAVA;;;QUATERNARY;;;;;;;WHOLE ROCK;;;;;;;;;;57.64;1.42;;;;17.66;;;;;;;;;6.7;;0.51;;5.42;2.21;0.51;;;;;;2.1;ICPMS;;;5.3;0.69;;;;;;;;0.07;;;;0.37;;;;;;;1000;;;;;;;;;;;;;;;;;;14;ICPMS;;;;102;ICPMS;;;;;;;11;ICPMS;;;;;;;;;;;;;;;;;;;;;;;60;ICPMS;;;;;1119;ICPMS;;;;;32;ICPMS;;;383;ICPMS;;;101;ICPMS;;;;;;;;;;;;;1.1;ICPMS;;;1238;ICPMS;;;125;ICPMS;;;225;ICPMS;;;22.8;83.8;ICPMS;;;;;14.2;ICPMS;;;3.97;ICPMS;;;10.8;ICPMS;;;;;;;7.1;ICPMS;;;;3.3;ICPMS;;;0.49;3.1;ICPMS;;;0.43;8.4;4.8;2;;;;;0;12;ICPMS;;;0.5;;;16.7;ICPMS;;;4.7;ICPMS;;;;;;;;;;;;;;;;;;;;;;;;;;;;;;;;;;;;;;;;;;;;;;;;;;;;;;;;;;;;;;;;;;;;;;;;;;;;;;;;;;;;;
2012;[16433] TAGLIANI S. (2012);samp. 26L;;ETNA/SICILY / ELLITTICO SEQUENCE;MT. CALVARIO DOME;37.65;14.87;37.65;14.87;;;OUTCROP;;;SUBAERIAL;VOLCANIC ROCK;BENMOREITE;;MASSIVE LAVA;;;QUATERNARY;;;;;;;WHOLE ROCK;;;;;;;;;;57.42;1.39;;;;17.79;;;;;;;;;6.3;;0.94;;5.42;2.22;0.94;;;;;;2.11;ICPMS;;;5.33;0.67;;;;;;;;0.07;;;;0.27;;;;;;;600;;;;;;;;;;;;;;;;;;13;ICPMS;;;;103;ICPMS;;;;;;;11;ICPMS;;;;;;;;;;;;;;;;;;;;;;;61;ICPMS;;;;;1136;ICPMS;;;;;30;ICPMS;;;366;ICPMS;;;99;ICPMS;;;;;;;;;;;;;0.7;ICPMS;;;1215;ICPMS;;;126;ICPMS;;;225;ICPMS;;;22.9;83;ICPMS;;;;;14.2;ICPMS;;;3.89;ICPMS;;;11;ICPMS;;;;;;;7;ICPMS;;;;3.3;ICPMS;;;0.48;3.1;ICPMS;;;0.42;8;4.7;1;;;;;0;10;ICPMS;;;0.5;;;16.5;ICPMS;;;3.4;ICPMS;;;;;;;;;;;;;;;;;;;;;;;;;;;;;;;;;;;;;;;;;;;;;;;;;;;;;;;;;;;;;;;;;;;;;;;;;;;;;;;;;;;;;
2012;[16433] TAGLIANI S. (2012);samp. 27L;;ETNA/SICILY / ELLITTICO SEQUENCE;MT. CALVARIO DOME;37.65;14.87;37.65;14.87;;;OUTCROP;;;SUBAERIAL;VOLCANIC ROCK;BENMOREITE;;MASSIVE LAVA;;;QUATERNARY;;;;;;;WHOLE ROCK;;;;;;;;;;58.18;1.39;;;;17.55;;;;;;;;;6.31;;0.69;;5.36;2.11;0.69;;;;;;2.3;ICPMS;;;5.05;0.66;;;;;;;;0.1;;;;0.26;;;;;;;1000;;;;;;;;;;;;;;;;;;14;ICPMS;;;;108;ICPMS;;;;;;;10;ICPMS;;;;;;;;;;;;;;;;;;;;;;;56;ICPMS;;;;;1124;ICPMS;;;;;32;ICPMS;;;381;ICPMS;;;98;ICPMS;;;;;;;;;;;;;0.9;ICPMS;;;1263;ICPMS;;;127;ICPMS;;;228;ICPMS;;;22.8;84.7;ICPMS;;;;;14.3;ICPMS;;;3.92;ICPMS;;;10.9;ICPMS;;;;;;;7.1;ICPMS;;;;3.4;ICPMS;;;0.49;3.2;ICPMS;;;0.44;8.5;4.9;2;;;;;0.1;26;ICPMS;;;2.7;;;17.1;ICPMS;;;4.9;ICPMS;;;;;;;;;;;;;;;;;;;;;;;;;;;;;;;;;;;;;;;;;;;;;;;;;;;;;;;;;;;;;;;;;;;;;;;;;;;;;;;;;;;;;
2012;[16433] TAGLIANI S. (2012);samp. 6P;;ETNA/SICILY / ELLITTICO SEQUENCE;MT. CALVARIO DOME;37.65;14.87;37.65;14.87;;;OUTCROP;;;SUBAERIAL;VOLCANIC ROCK;BENMOREITE;;MASSIVE LAVA;;;QUATERNARY;;;;;;;WHOLE ROCK;;;;;;;;;;57.6;1.4;;;;17.4;;;;;;;;;7;;;;5.3;2.2;0.2;;;;;;2.5;ICPMS;;;5.3;0.7;;;;;;;;0.08;;;;0.26;;;;;;;692;;;;;;;;;;;;;;;;;;13;ICPMS;;;;113;ICPMS;;;;;;;10;ICPMS;;;;;;;;;;;;;;;;;;;;;;;53;ICPMS;;;;;1044;ICPMS;;;;;35;ICPMS;;;343;ICPMS;;;88;ICPMS;;;;;;;;;;;;;0.9;ICPMS;;;1194;ICPMS;;;112;ICPMS;;;202;ICPMS;;;20.4;78.9;ICPMS;;;;;12.9;ICPMS;;;3.46;ICPMS;;;11;ICPMS;;;;;;;6.9;ICPMS;;;;3.4;ICPMS;;;0.47;2.9;ICPMS;;;0.4;8.3;4.7;2;;;;;0;11;ICPMS;;;0;;;18;ICPMS;;;5.1;ICPMS;;;;;;;;;;;;;;;;;;;;;;;;;;;;;;;;;;;;;;;;;;;;;;;;;;;;;;;;;;;;;;;;;;;;;;;;;;;;;;;;;;;;;
2012;[16433] TAGLIANI S. (2012);samp. 1P;;ETNA/SICILY / ELLITTICO SEQUENCE;MT. CALVARIO DOME;37.65;14.87;37.65;14.87;;;OUTCROP;;;SUBAERIAL;VOLCANIC ROCK;BENMOREITE;;LAVA AROUND FISSURES;;;QUATERNARY;;;;;;;WHOLE ROCK;;;;;;;;;;54.4;1.3;;;;17.1;;;;;;;;;9.6;;0.09;;5.2;2;0.1;;;;;;3.2;ICPMS;;;5;0.7;;;;;;;;0.07;;;;0.19;;;;;;;1691;;;;;;;;;;;;;;;;;;11;ICPMS;;;;80;ICPMS;;;;;;;9;ICPMS;;;;;;;;;;;;;;;;;;;;;;;97;ICPMS;;;;;1056;ICPMS;;;;;34;ICPMS;;;319;ICPMS;;;81;ICPMS;;;;;;;;;;;;;2;ICPMS;;;1129;ICPMS;;;104;ICPMS;;;179;ICPMS;;;19.3;73;ICPMS;;;;;11.9;ICPMS;;;3.42;ICPMS;;;10.1;ICPMS;;;;;;;6.6;ICPMS;;;;3.4;ICPMS;;;0.47;3;ICPMS;;;0.42;7.8;4.5;1;;;;;0;13;ICPMS;;;0;;;20.4;ICPMS;;;4.2;ICPMS;;;;;;;;;;;;;;;;;;;;;;;;;;;;;;;;;;;;;;;;;;;;;;;;;;;;;;;;;;;;;;;;;;;;;;;;;;;;;;;;;;;;;
2012;[16433] TAGLIANI S. (2012);samp. 2P;;ETNA/SICILY / ELLITTICO SEQUENCE;MT. CALVARIO DOME;37.65;14.87;37.65;14.87;;;OUTCROP;;;SUBAERIAL;VOLCANIC ROCK;BENMOREITE;;LAVA AROUND FISSURES;;;QUATERNARY;;;;;;;WHOLE ROCK;;;;;;;;;;54.2;1.3;;;;17;;;;;;;;;9.4;;0;;4.7;2;0.1;;;;;;3.6;ICPMS;;;5.4;0.6;;;;;;;;0.06;;;;0.34;;;;;;;3261;;;;;;;;;;;;;;;;;;12;ICPMS;;;;89;ICPMS;;;;;;;8;ICPMS;;;;;;;;;;;;;;;;;;;;;;;98;ICPMS;;;;;1004;ICPMS;;;;;31;ICPMS;;;315;ICPMS;;;79;ICPMS;;;;;;;;;;;;;1.7;ICPMS;;;1071;ICPMS;;;78;ICPMS;;;138;ICPMS;;;15;57.6;ICPMS;;;;;9.5;ICPMS;;;2.8;ICPMS;;;7.9;ICPMS;;;;;;;5.4;ICPMS;;;;2.7;ICPMS;;;0.38;3.4;ICPMS;;;0.33;6.7;4;6;;;;;0;20;ICPMS;;;0;;;17.3;ICPMS;;;3.1;ICPMS;;;;;;;;;;;;;;;;;;;;;;;;;;;;;;;;;;;;;;;;;;;;;;;;;;;;;;;;;;;;;;;;;;;;;;;;;;;;;;;;;;;;;
2012;[16433] TAGLIANI S. (2012);samp. 3P;;ETNA/SICILY / ELLITTICO SEQUENCE;MT. CALVARIO DOME;37.65;14.87;37.65;14.87;;;OUTCROP;;;SUBAERIAL;VOLCANIC ROCK;BENMOREITE;;LAVA AROUND FISSURES;;;QUATERNARY;;;;;;;WHOLE ROCK;;;;;;;;;;52.6;1.3;;;;16.5;;;;;;;;;12.4;;0;;4.7;2.1;0.2;;;;;;3;ICPMS;;;5.3;0.6;;;;;;;;0.04;;;;0.24;;;;;;;2360;;;;;;;;;;;;;;;;;;12;ICPMS;;;;58;ICPMS;;;;;;;12;ICPMS;;;;;;;;;;;;;;;;;;;;;;;91;ICPMS;;;;;1032;ICPMS;;;;;29;ICPMS;;;307;ICPMS;;;79;ICPMS;;;;;;;;;;;;;1.8;ICPMS;;;1079;ICPMS;;;79;ICPMS;;;141;ICPMS;;;15.4;60;ICPMS;;;;;10.1;ICPMS;;;3.06;ICPMS;;;8.7;ICPMS;;;;;;;5.6;ICPMS;;;;2.9;ICPMS;;;0.41;2.7;ICPMS;;;0.37;7.4;4.4;2;;;;;0;14;ICPMS;;;0;;;18.3;ICPMS;;;2.1;ICPMS;;;;;;;;;;;;;;;;;;;;;;;;;;;;;;;;;;;;;;;;;;;;;;;;;;;;;;;;;;;;;;;;;;;;;;;;;;;;;;;;;;;;;
2012;[16433] TAGLIANI S. (2012);samp. 4P;;ETNA/SICILY / ELLITTICO SEQUENCE;MT. CALVARIO DOME;37.65;14.87;37.65;14.87;;;OUTCROP;;;SUBAERIAL;VOLCANIC ROCK;BENMOREITE;;LAVA AROUND FISSURES;;;QUATERNARY;;;;;;;WHOLE ROCK;;;;;;;;;;54.5;1.3;;;;17;;;;;;;;;8.7;;0;;5.9;2.1;0.2;;;;;;3.1;ICPMS;;;5.4;0.7;;;;;;;;0.05;;;;0.26;;;;;;;1018;;;;;;;;;;;;;;;;;;13;ICPMS;;;;92;ICPMS;;;;;;;9;ICPMS;;;;;;;;;;;;;;;;;;;;;;;83;ICPMS;;;;;1126;ICPMS;;;;;34;ICPMS;;;295;ICPMS;;;87;ICPMS;;;;;;;;;;;;;1.7;ICPMS;;;1225;ICPMS;;;101;ICPMS;;;174;ICPMS;;;18.5;71.2;ICPMS;;;;;11.9;ICPMS;;;3.44;ICPMS;;;10.2;ICPMS;;;;;;;6.7;ICPMS;;;;3.4;ICPMS;;;0.49;3.1;ICPMS;;;0.41;7.2;4.3;3;;;;;0;60;ICPMS;;;0.5;;;19.7;ICPMS;;;2.5;ICPMS;;;;;;;;;;;;;;;;;;;;;;;;;;;;;;;;;;;;;;;;;;;;;;;;;;;;;;;;;;;;;;;;;;;;;;;;;;;;;;;;;;;;;
2012;[16433] TAGLIANI S. (2012);samp. 5P;;ETNA/SICILY / ELLITTICO SEQUENCE;MT. CALVARIO DOME;37.65;14.87;37.65;14.87;;;OUTCROP;;;SUBAERIAL;VOLCANIC ROCK;BENMOREITE;;LAVA AROUND FISSURES;;;QUATERNARY;;;;;;;WHOLE ROCK;;;;;;;;;;54.2;1.3;;;;16.9;;;;;;;;;9.6;;0;;5.2;2.1;0.1;;;;;;3.5;ICPMS;;;5.3;0.6;;;;;;;;0.09;;;;0.18;;;;;;;1351;;;;;;;;;;;;;;;;;;13;ICPMS;;;;87;ICPMS;;;;;;;9;ICPMS;;;;;;;;;;;;;;;;;;;;;;;100;ICPMS;;;;;1035;ICPMS;;;;;33;ICPMS;;;320;ICPMS;;;89;ICPMS;;;;;;;;;;;;;1.9;ICPMS;;;1145;ICPMS;;;98.3;ICPMS;;;170;ICPMS;;;18.2;69.5;ICPMS;;;;;11.3;ICPMS;;;3.28;ICPMS;;;9.8;ICPMS;;;;;;;6.4;ICPMS;;;;3.3;ICPMS;;;0.47;3;ICPMS;;;0.41;7.6;4.4;0;;;;;0;11;ICPMS;;;0;;;19.6;ICPMS;;;2.8;ICPMS;;;;;;;;;;;;;;;;;;;;;;;;;;;;;;;;;;;;;;;;;;;;;;;;;;;;;;;;;;;;;;;;;;;;;;;;;;;;;;;;;;;;;
2012;[16433] TAGLIANI S. (2012);samp. 8F;;ETNA/SICILY / ELLITTICO SEQUENCE;MT. CALVARIO DOME;37.65;14.87;37.65;14.87;;;OUTCROP;;;SUBAERIAL;VOLCANIC ROCK;BENMOREITE;;AUTOBRECCIATED LAVA;;;QUATERNARY;;;;;;;WHOLE ROCK;;;;;;;;;;58.09;1.47;;;;16.6;;;;;;;;;4.7;;3.83;;4.41;2.22;0.19;;;;;;2.38;ICPMS;;;5.23;0.7;;;;;;;;0.12;;;;0.42;;;;;;;600;;;;;;;;;;;;;;;;;;15;ICPMS;;;;113;ICPMS;;;;;;;12;ICPMS;;;;;;;;;;;;;;;;;;;;;;;68;ICPMS;;;;;895;ICPMS;;;;;34;ICPMS;;;414;ICPMS;;;107;ICPMS;;;;;;;;;;;;;0.7;ICPMS;;;1324;ICPMS;;;138;ICPMS;;;246;ICPMS;;;24.6;88.8;ICPMS;;;;;15.1;ICPMS;;;4.11;ICPMS;;;11.5;ICPMS;;;;;;;7.6;ICPMS;;;;3.6;ICPMS;;;0.53;3.3;ICPMS;;;0.46;8.9;5.3;1;;;;;0.2;22;ICPMS;;;0;;;17.6;ICPMS;;;4.3;ICPMS;;;;;;;;;;;;;;;;;;;;;;;;;;;;;;;;;;;;;;;;;;;;;;;;;;;;;;;;;;;;;;;;;;;;;;;;;;;;;;;;;;;;;
2012;[16433] TAGLIANI S. (2012);samp. 19F;;ETNA/SICILY / ELLITTICO SEQUENCE;MT. CALVARIO DOME;37.65;14.87;37.65;14.87;;;OUTCROP;;;SUBAERIAL;VOLCANIC ROCK;BENMOREITE;;AUTOBRECCIATED LAVA;;;QUATERNARY;;;;;;;WHOLE ROCK;;;;;;;;;;60.16;1.41;;;;15.63;;;;;;;;;5.47;;1.32;;3.23;2.41;0.21;;;;;;3.23;ICPMS;;;5.56;0.56;;;;;;;;0.06;;;;0.71;;;;;;;1100;;;;;;;;;;;;;;;;;;13;ICPMS;;;;66;ICPMS;;;;;;;12;ICPMS;;;;;;;;;;;;;;;;;;;;;;;82;ICPMS;;;;;527;ICPMS;;;;;44;ICPMS;;;619;ICPMS;;;133;ICPMS;;;;;;;;;;;;;0.5;ICPMS;;;1366;ICPMS;;;156;ICPMS;;;282;ICPMS;;;28.6;103;ICPMS;;;;;17.2;ICPMS;;;4.01;ICPMS;;;13.5;ICPMS;;;;;;;9.2;ICPMS;;;;4.7;ICPMS;;;0.7;4.5;ICPMS;;;0.63;12.7;6.7;2;;;;;0.2;28;ICPMS;;;0.7;;;25.9;ICPMS;;;7.6;ICPMS;;;;;;;;;;;;;;;;;;;;;;;;;;;;;;;;;;;;;;;;;;;;;;;;;;;;;;;;;;;;;;;;;;;;;;;;;;;;;;;;;;;;;
2012;[16433] TAGLIANI S. (2012);samp. 27F;;ETNA/SICILY / ELLITTICO SEQUENCE;MT. CALVARIO DOME;37.65;14.87;37.65;14.87;;;OUTCROP;;;SUBAERIAL;VOLCANIC ROCK;BENMOREITE;;AUTOBRECCIATED LAVA;;;QUATERNARY;;;;;;;WHOLE ROCK;;;;;;;;;;58.56;1.33;;;;15.44;;;;;;;;;2.94;;6.76;;3.39;2.22;0.5;;;;;;3.07;ICPMS;;;5.38;0.52;;;;;;;;0.07;;;;0.21;;;;;;;1300;;;;;;;;;;;;;;;;;;13;ICPMS;;;;83;ICPMS;;;;;;;15;ICPMS;;;;;;;;;;;;;;;;;;;;;;;76;ICPMS;;;;;665;ICPMS;;;;;35;ICPMS;;;574;ICPMS;;;114;ICPMS;;;;;;;;;;;;;0.6;ICPMS;;;1319;ICPMS;;;149;ICPMS;;;258;ICPMS;;;25.4;88.3;ICPMS;;;;;14.4;ICPMS;;;3.72;ICPMS;;;10.9;ICPMS;;;;;;;7.3;ICPMS;;;;3.7;ICPMS;;;0.56;3.7;ICPMS;;;0.51;11.8;6;3;;;;;0.1;19;ICPMS;;;2.4;;;23.4;ICPMS;;;6.1;ICPMS;;;;;;;;;;;;;;;;;;;;;;;;;;;;;;;;;;;;;;;;;;;;;;;;;;;;;;;;;;;;;;;;;;;;;;;;;;;;;;;;;;;;;