Year;CITATION;SAMPLE NAME;UNIQUE_ID;LOCATION;LOCATION COMMENT;LATITUDE (MIN.);LONGITUDE (MIN.);LATITUDE (MAX.);LONGITUDE (MAX.);ELEVATION (MIN.);ELEVATION (MAX.);SAMPLING TECHNIQUE;DRILLING DEPTH (MIN.);DRILLING DEPTH (MAX.);LAND/SEA (SAMPLING);ROCK TYPE;ROCK NAME;ROCK TEXTURE;SAMPLE COMMENT;AGE (MIN.);AGE (MAX.);GEOLOGICAL AGE;GEOLOGICAL AGE PREFIX;ERUPTION DAY;ERUPTION MONTH;ERUPTION YEAR;ALTERATION;ALTERATION TYPE;TYPE OF MATERIAL;MINERAL / COMPONENT;SPOT (MINERAL);CRYSTAL;RIM / CORE (MINERAL GRAINS);PRIMARY/SECONDARY;INCLUSION TYPE;MINERAL (INCLUSION);HOSTMINERAL (INCLUSION);HEATING;SIO2(WT%);TIO2(WT%);ZRO2(WT%);HFO2(WT%);THO2(WT%);AL2O3(WT%);CR2O3(WT%);LA2O3(WT%);CE2O3(WT%);ND2O3(WT%);SM2O3(WT%);V2O3(WT%);NB2O5(WT%);FE2O3T(WT%);FE2O3(WT%);FEOT(WT%);FEO(WT%);FET(WT%);CAO(WT%);MGO(WT%);MNO(WT%);BAO(WT%);SRO(WT%);NIO(WT%);ZNO(WT%);RB2O(WT%);K2O(WT%);;;;NA2O(WT%);P2O5(WT%);AS2O5(WT%);H2O(WT%);H2OP(WT%);H2OM(WT%);CO2(WT%);C(WT%);F(WT%);CL(WT%);OH(WT%);SO3(WT%);S(WT%);LOI(WT%);TI(WT%);CA(WT%);K(WT%);LI(PPM);BE(PPM);B(PPM);F(PPM);P(PPM);S(PPM);CL(PPM);AR40(AT/G);;;;AR40(CCMSTP/G);;;;AR40(MOL/G);;;;AR40(PPB);K(PPM);SC(PPM);;;;TI(PPM);V(PPM);;;;CR(PPM);;;;CO(PPM);;;;NI(PPM);;;;CU(PPM);;;;ZN(PPM);;;;GA(PPM);;;;GE(PPM);AS(PPM);AS(PPB);SE(PPM);RB(PPM);;;;;;SR(PPM);;;;;;Y(PPM);;;;ZR(PPM);;;;NB(PPM);;;;MO(PPM);AG(PPM);CD(PPM);IN(PPM);SN(PPM);SB(PPM): altern. values or methods;;;;TE(PPM);CS(PPM): altern. values or methods;;;;BA(PPM): altern. values or methods;;;;LA(PPM): altern. values or methods;;;;CE(PPM): altern. values or methods;;;;PR(PPM);ND(PPM): altern. values or methods;;;;;;SM(PPM): altern. values or methods;;;;EU(PPM): altern. values or methods;;;;GD(PPM): altern. values or methods;;;;TB(PPM): altern. values or methods;;;;DY(PPM): altern. values or methods;;;;HO(PPM);ER(PPM): altern. values or methods;;;;TM(PPM);YB(PPM): altern. values or methods;;;;LU(PPM);HF(PPM);TA(PPM);W(PPM);RE(PPM);AU(PPM);HG(PPM);HG(PPB);TL(PPM);PB(PPM): altern. values or methods;;;;BI(PPM);PO210_ACT(DPM/G);RA226_ACT(DPM/G);TH(PPM): altern. values or methods;;;;U(PPM): altern. values or methods;;;;ND143_ND144;ND143_ND144_INI;EPSILON_ND;EPSILON_ND_INI;SM147_ND144;SR87_SR86;SR87_SR86_INI;EPSILON_SR_INI;RB87_SR86;PB206_PB204: altern. values or methods;;;;PB206_PB204_INI;PB207_PB204: altern. values or methods;;;;PB207_PB204_INI;PB207_PB206;PB208_PB204: altern. values or methods;;;;PB208_PB204_INI;PB208_PB206;HF176_HF177;LU176_HF177;AR38_AR36;AR40_AR36;AR40_AR36_INI;PB206_U238;PB207_U235;RA226_TH230_ACT;PA231_U235_ACT;TH230_TH232_ACT;TH230_U238_ACT;TH232_PB204;U234_U238_ACT;U235_PB204;U238_PB204;U238_TH232_ACT;D7LI(VS LSVEC);D13C(VS PDB);D18O(PER MIL);D18O(VS SMOW);D18O(VS VSMOW);D34S(VS VCDT);ALBITE(MOL%);ANORTHITE(MOL%);CA OLIVINE(MOL%);CHROMITE(MOL%);ENSTATITE(MOL%);FAYALITE(MOL%);FORSTERITE(MOL%);FERROSILITE(MOL%);HEMATITE(MOL%);HERCYNITE(MOL%);ILMENITE(MOL%);MAGNESIOFERRITE(MOL%);MONTICELLITE(MOL%);MAGNETITE(MOL%);ORTHOCLASE(MOL%);PICROCHROMITE(MOL%);SPINEL(MOL%);TEPHROITE(MOL%);ULVOSPINEL(MOL%);WOLLASTONITE(MOL%);AGE(KA): altern. values or methods;;;;;;AGE(MA): altern. values or methods;;;;;;AGE_PB207_U235(MA);AGE_PB206_U238(MA);
2008;[12263] MACDONALD R.(2008)  [GeoReM [4079] ];samp. BB85.268;;EAST AFRICAN RIFT / KENYA RIFT (EASTERN EAST AFRICAN RIFT) / SOUTHERN KENYA RIFT / GREATER OLKARIA(NAIVASHA) / OLKARIA COMENDITE FORMATION;;-0.72;36.43;-0.72;36.43;;;OUTCROP;;;SUBAERIAL;VOLCANIC ROCK;BENMOREITE;;DIKE;0;20000;QUATERNARY;;;;;;;MINERAL / COMPONENT (INCL. GROUNDMASS);FELDSPAR;1HC;PHENOCRYST;;PRIMARY;;;;;61.23;;;;;21.75;;;;;;;;0.27;;;;;3.84;;;1.18;;;;;4.16;EMP (EPMA);;;5.76;;;;;;;;;;;;;;;;;3.07;;;;;;;;;;;;;;;;;;;;;;;;;;;;;;;;;;;;;;;;;;;;;;;;;;27.4;ICPMS_LA;;;;;;;17;ICPMS_LA;;;;;922;ICPMS_LA;;;;;;;;;;;;;;;;;;;;;;;;;;;;;;;;;;;6.03;ICPMS_LA;;;7.02;ICPMS_LA;;;0.58;1.73;ICPMS_LA;;;;;0.15;ICPMS_LA;;;27.8;ICPMS_LA;;;0.07;ICPMS_LA;;;0.02;ICPMS_LA;;;0.046;ICPMS_LA;;;0.01;0.012;ICPMS_LA;;;;;;;;;;;;;;;;;3.2;ICPMS_LA;;;;;;;;;;;;;;;;;;;;;;;;;;;;;;;;;;;;;;;;;;;;;;;;;;;;;;;;;;;;;;54.3;20;;;;;;;;;;;;;25.8;;;;;;;;;;;;;;;;;;;;
2008;[12263] MACDONALD R.(2008)  [GeoReM [4079] ];samp. BB85.268;;EAST AFRICAN RIFT / KENYA RIFT (EASTERN EAST AFRICAN RIFT) / SOUTHERN KENYA RIFT / GREATER OLKARIA(NAIVASHA) / OLKARIA COMENDITE FORMATION;;-0.72;36.43;-0.72;36.43;;;OUTCROP;;;SUBAERIAL;VOLCANIC ROCK;BENMOREITE;;DIKE;0;20000;QUATERNARY;;;;;;;MINERAL / COMPONENT (INCL. GROUNDMASS);FELDSPAR;3HD;PHENOCRYST;;PRIMARY;;;;;57.91;;;;;24.6;;;;;;;;0.4;;;;;7.04;;;0.99;;;;;1.68;EMP (EPMA);;;5.68;;;;;;;;;;;;;;;;;2.12;;;;;;;;;;;;;;;;;;;;;;;;;;;;;;;;;;;;;;;;;;;;;;;;;;25.1;ICPMS_LA;;;;;;;27.1;ICPMS_LA;;;;;1006;ICPMS_LA;;;;;;;;;;;;;;;;;;;;;;;;;;;0.047;ICPMS_LA;;;;;;;5.28;ICPMS_LA;;;7.92;ICPMS_LA;;;0.66;2.08;ICPMS_LA;;;;;0.364;ICPMS_LA;;;19.2;ICPMS_LA;;;0.327;ICPMS_LA;;;0.039;ICPMS_LA;;;0.203;ICPMS_LA;;;0.031;0.102;ICPMS_LA;;;;0.107;ICPMS_LA;;;0.016;;;;;;;;;3.11;ICPMS_LA;;;;;;;;;;;;;;;;;;;;;;;;;;;;;;;;;;;;;;;;;;;;;;;;;;;;;;;;;;;;;;53.2;36.4;;;;;;;;;;;;;10.4;;;;;;;;;;;;;;;;;;;;
2008;[12263] MACDONALD R.(2008)  [GeoReM [4079] ];samp. BB85.40;;EAST AFRICAN RIFT / KENYA RIFT (EASTERN EAST AFRICAN RIFT) / SOUTHERN KENYA RIFT / GREATER OLKARIA(NAIVASHA);;-0.72;36.43;-0.72;36.43;;;OUTCROP;;;SUBAERIAL;VOLCANIC ROCK;BENMOREITE;;DIKE;0;20000;QUATERNARY;;;;;;;MINERAL / COMPONENT (INCL. GROUNDMASS);FELDSPAR;4HA;PHENOCRYST;;PRIMARY;;;;;60.64;;;;;22.25;;;;;;;;0.24;;;;;4.21;;;1.56;0.06;;;;3.93;EMP (EPMA);;;5.79;;;;;;;;;;;;;;;;;5.36;;;;;;;;;;;;;;;;;;;;;;;;;;;;;;;;;;;;;;;;;;;;;;;;;;27.5;ICPMS_LA;;;;;;;19.3;ICPMS_LA;;;;;771;ICPMS_LA;;;;;;;;;;;;;;;;;;;;;;;;;;;0.51;ICPMS_LA;;;19807;ICPMS_LA;;;7.28;ICPMS_LA;;;8.08;ICPMS_LA;;;0.77;2.46;ICPMS_LA;;;;;0.22;ICPMS_LA;;;22.96;ICPMS_LA;;;0.18;ICPMS_LA;;;0.02;ICPMS_LA;;;0.12;ICPMS_LA;;;0.04;0.09;ICPMS_LA;;;0.01;0.06;ICPMS_LA;;;0.01;;;;;;;;;2.88;ICPMS_LA;;;;;;;;;;;;;;;;;;;;;;;;;;;;;;;;;;;;;;;;;;;;;;;;;;;;;;;;;;;;;;54.1;21.7;;;;;;;;;;;;;24.2;;;;;;;;;;;;;;;;;;;;
2008;[12263] MACDONALD R.(2008)  [GeoReM [4079] ];samp. BB85.40;;EAST AFRICAN RIFT / KENYA RIFT (EASTERN EAST AFRICAN RIFT) / SOUTHERN KENYA RIFT / GREATER OLKARIA(NAIVASHA);;-0.72;36.43;-0.72;36.43;;;OUTCROP;;;SUBAERIAL;VOLCANIC ROCK;BENMOREITE;;DIKE;0;20000;QUATERNARY;;;;;;;MINERAL / COMPONENT (INCL. GROUNDMASS);FELDSPAR;4HB;PHENOCRYST;;PRIMARY;;;;;59.87;;;;;23.21;;;;;;;;0.31;;;;;5.32;;;1.03;0.09;;;;2.88;EMP (EPMA);;;6.09;;;;;;;;;;;;;;;;;5.97;;;;;;;;;;;;;;;;;;;;;;;;;;;;;;;;;;;;;;;;;;;;;;;;;;27.1;ICPMS_LA;;;;;;;30;ICPMS_LA;;;;;747;ICPMS_LA;;;;;;;;;;;;;;;;;;;;;;;;;;;1.51;ICPMS_LA;;;17589;ICPMS_LA;;;6.91;ICPMS_LA;;;7.49;ICPMS_LA;;;0.66;1.95;ICPMS_LA;;;;;0.22;ICPMS_LA;;;22.5;ICPMS_LA;;;0.19;ICPMS_LA;;;0.03;ICPMS_LA;;;0.21;ICPMS_LA;;;0.05;0.2;ICPMS_LA;;;0.04;0.36;ICPMS_LA;;;0.07;;;;;;;;;2.9;ICPMS_LA;;;;;;;;;;;;;;;;;;;;;;;;;;;;;;;;;;;;;;;;;;;;;;;;;;;;;;;;;;;;;;55.7;26.9;;;;;;;;;;;;;17.3;;;;;;;;;;;;;;;;;;;;
2008;[12263] MACDONALD R.(2008)  [GeoReM [4079] ];samp. BB85.40;;EAST AFRICAN RIFT / KENYA RIFT (EASTERN EAST AFRICAN RIFT) / SOUTHERN KENYA RIFT / GREATER OLKARIA(NAIVASHA);;-0.72;36.43;-0.72;36.43;;;OUTCROP;;;SUBAERIAL;VOLCANIC ROCK;BENMOREITE;;DIKE;0;20000;QUATERNARY;;;;;;;MINERAL / COMPONENT (INCL. GROUNDMASS);FELDSPAR;4HC;PHENOCRYST;;PRIMARY;;;;;59.95;;;;;23.07;;;;;;;;0.76;;;;;5.2;;;0.77;0.04;;;;2.66;EMP (EPMA);;;6.17;;;;;;;;;;;;;;;;;4.08;;;;;;;;;;;;;;;;;;;;;;;;;;;;;;;;;;;;;;;;;;;;;;;;;;26.6;ICPMS_LA;;;;;;;17.2;ICPMS_LA;;;;;733;ICPMS_LA;;;;;;;;;;;;;;;;;;;;;;;;;;;0.207;ICPMS_LA;;;16800;ICPMS_LA;;;7.06;ICPMS_LA;;;8.4;ICPMS_LA;;;0.89;2.7;ICPMS_LA;;;;;0.28;ICPMS_LA;;;21.2;ICPMS_LA;;;0.29;ICPMS_LA;;;0.05;ICPMS_LA;;;0.26;ICPMS_LA;;;0.04;0.09;ICPMS_LA;;;0.01;0.14;ICPMS_LA;;;0.02;;;;;;;;;2.77;ICPMS_LA;;;;;;;;;;;;;;;;;;;;;;;;;;;;;;;;;;;;;;;;;;;;;;;;;;;;;;;;;;;;;;57.2;26.6;;;;;;;;;;;;;16.2;;;;;;;;;;;;;;;;;;;;
2008;[12263] MACDONALD R.(2008)  [GeoReM [4079] ];samp. BB85.40;;EAST AFRICAN RIFT / KENYA RIFT (EASTERN EAST AFRICAN RIFT) / SOUTHERN KENYA RIFT / GREATER OLKARIA(NAIVASHA);;-0.72;36.43;-0.72;36.43;;;OUTCROP;;;SUBAERIAL;VOLCANIC ROCK;BENMOREITE;;DIKE;0;20000;QUATERNARY;;;;;;;MINERAL / COMPONENT (INCL. GROUNDMASS);FELDSPAR;4HD;PHENOCRYST;;PRIMARY;;;;;60.21;;;;;22.52;;;;;;;;0.27;;;;;4.34;;;1.68;0.08;;;;3.74;EMP (EPMA);;;5.73;;;;;;;;;;;;;;;;;6.04;;;;;;;;;;;;;;;;;;;;;;;;;;;;;;;;;;;;;;;;;;;;;;;;;;26.6;ICPMS_LA;;;;;;;18.1;ICPMS_LA;;;;;744;ICPMS_LA;;;;;;;;;;;;;;;;;;;;;;;;;;;0.26;ICPMS_LA;;;20115;ICPMS_LA;;;4.76;ICPMS_LA;;;6.27;ICPMS_LA;;;0.44;1.16;ICPMS_LA;;;;;0.08;ICPMS_LA;;;20.32;ICPMS_LA;;;0.06;ICPMS_LA;;;0.01;ICPMS_LA;;;0.05;ICPMS_LA;;;0.01;0.03;ICPMS_LA;;;0.01;0.05;ICPMS_LA;;;0.01;;;;;;;;;2.99;ICPMS_LA;;;;;;;;;;;;;;;;;;;;;;;;;;;;;;;;;;;;;;;;;;;;;;;;;;;;;;;;;;;;;;54.1;22.7;;;;;;;;;;;;;23.2;;;;;;;;;;;;;;;;;;;;
2008;[12263] MACDONALD R.(2008)  [GeoReM [4079] ];samp. BB85.40;;EAST AFRICAN RIFT / KENYA RIFT (EASTERN EAST AFRICAN RIFT) / SOUTHERN KENYA RIFT / GREATER OLKARIA(NAIVASHA);;-0.72;36.43;-0.72;36.43;;;OUTCROP;;;SUBAERIAL;VOLCANIC ROCK;BENMOREITE;;DIKE;0;20000;QUATERNARY;;;;;;;MINERAL / COMPONENT (INCL. GROUNDMASS);FELDSPAR;4HE;PHENOCRYST;;PRIMARY;;;;;60.3;;;;;22.37;;;;;;;;0.27;;;;;4.19;;;1.69;0.12;;;;3.99;EMP (EPMA);;;5.65;;;;;;;;;;;;;;;;;5.22;;;;;;;;;;;;;;;;;;;;;;;;;;;;;;;;;;;;;;;;;;;;;;;;;;21.7;ICPMS_LA;;;;;;;15.5;ICPMS_LA;;;;;582;ICPMS_LA;;;;;;;;;;;;;;;;;;;;;;;;;;;0.07;ICPMS_LA;;;17707;ICPMS_LA;;;3.3;ICPMS_LA;;;4.5;ICPMS_LA;;;0.32;0.86;ICPMS_LA;;;;;0.09;ICPMS_LA;;;15.82;ICPMS_LA;;;0.02;ICPMS_LA;;;;;;;0.01;ICPMS_LA;;;;;;;;;;;;;;;;;;;;;;2.43;ICPMS_LA;;;;;;;;;;;;;;;;;;;;;;;;;;;;;;;;;;;;;;;;;;;;;;;;;;;;;;;;;;;;;;53.4;21.9;;;;;;;;;;;;;24.8;;;;;;;;;;;;;;;;;;;;
2008;[12263] MACDONALD R.(2008)  [GeoReM [4079] ];samp. BB85.40;;EAST AFRICAN RIFT / KENYA RIFT (EASTERN EAST AFRICAN RIFT) / SOUTHERN KENYA RIFT / GREATER OLKARIA(NAIVASHA);;-0.72;36.43;-0.72;36.43;;;OUTCROP;;;SUBAERIAL;VOLCANIC ROCK;BENMOREITE;;DIKE;0;20000;QUATERNARY;;;;;;;MINERAL / COMPONENT (INCL. GROUNDMASS);FELDSPAR;4HF;PHENOCRYST;;PRIMARY;;;;;60.88;;;;;22.37;;;;;;;;0.24;;;;;4.15;;;1.17;0.09;;;;3.92;EMP (EPMA);;;6.01;;;;;;;;;;;;;;;;;4.46;;;;;;;;;;;;;;;;;;;;;;;;;;;;;;;;;;;;;;;;;;;;;;;;;;23.3;ICPMS_LA;;;;;;;18.6;ICPMS_LA;;;;;622;ICPMS_LA;;;;;;;;;;;;;;;;;;;;;;;;;;;0.69;ICPMS_LA;;;16806;ICPMS_LA;;;5.22;ICPMS_LA;;;5.69;ICPMS_LA;;;0.44;1.16;ICPMS_LA;;;;;0.09;ICPMS_LA;;;18.54;ICPMS_LA;;;0.1;ICPMS_LA;;;0.01;ICPMS_LA;;;0.03;ICPMS_LA;;;0.01;;;;;;;;;;;;;;;;;;;2.02;ICPMS_LA;;;;;;;;;;;;;;;;;;;;;;;;;;;;;;;;;;;;;;;;;;;;;;;;;;;;;;;;;;;;;;55.2;21.1;;;;;;;;;;;;;23.7;;;;;;;;;;;;;;;;;;;;
2008;[12263] MACDONALD R.(2008)  [GeoReM [4079] ];samp. BB85.40;;EAST AFRICAN RIFT / KENYA RIFT (EASTERN EAST AFRICAN RIFT) / SOUTHERN KENYA RIFT / GREATER OLKARIA(NAIVASHA);;-0.72;36.43;-0.72;36.43;;;OUTCROP;;;SUBAERIAL;VOLCANIC ROCK;BENMOREITE;;DIKE;0;20000;QUATERNARY;;;;;;;MINERAL / COMPONENT (INCL. GROUNDMASS);FELDSPAR;YHH;PHENOCRYST;;PRIMARY;;;;;57.42;;;;;24.68;;;;;;;;0.32;;;;;6.8;;;0.93;0.15;;;;1.77;EMP (EPMA);;;6.19;;;;;;;;;;;;;;;;;8.18;;;;;;;;;;;;;;;;;;;;;;;;;;;;;;;;;;;;;;;;;;;;;;;;;;31.7;ICPMS_LA;;;;;;;9.7;ICPMS_LA;;;;;1809;ICPMS_LA;;;;;;;;;;;;;;;;;;;;;;;;;;;0.282;ICPMS_LA;;;21309;ICPMS_LA;;;7.53;ICPMS_LA;;;9.8;ICPMS_LA;;;0.8;2.55;ICPMS_LA;;;;;0.26;ICPMS_LA;;;19.7;ICPMS_LA;;;0.16;ICPMS_LA;;;0.02;ICPMS_LA;;;0.15;ICPMS_LA;;;0.02;0.08;ICPMS_LA;;;0.02;0.19;ICPMS_LA;;;0.03;;;;;;;;;2.09;ICPMS_LA;;;;;;;;;;;;;;;;;;;;;;;;;;;;;;;;;;;;;;;;;;;;;;;;;;;;;;;;;;;;;;55.7;33.8;;;;;;;;;;;;;10.5;;;;;;;;;;;;;;;;;;;;
2008;[12263] MACDONALD R.(2008)  [GeoReM [4079] ];samp. BB85.40;;EAST AFRICAN RIFT / KENYA RIFT (EASTERN EAST AFRICAN RIFT) / SOUTHERN KENYA RIFT / GREATER OLKARIA(NAIVASHA);;-0.72;36.43;-0.72;36.43;;;OUTCROP;;;SUBAERIAL;VOLCANIC ROCK;BENMOREITE;;DIKE;0;20000;QUATERNARY;;;;;;;MINERAL / COMPONENT (INCL. GROUNDMASS);FELDSPAR;YHI;PHENOCRYST;;PRIMARY;;;;;58.87;;;;;23.11;;;;;;;;0.31;;;;;5.06;;;1.85;0.1;;;;3.18;EMP (EPMA);;;5.82;;;;;;;;;;;;;;;;;7.33;;;;;;;;;;;;;;;;;;;;;;;;;;;;;;;;;;;;;;;;;;;;;;;;;;35.5;ICPMS_LA;;;;;;;11.9;ICPMS_LA;;;;;1877;ICPMS_LA;;;;;;;;;;;;;;;;;;;;;;;;;;;0.208;ICPMS_LA;;;27340;ICPMS_LA;;;9.46;ICPMS_LA;;;11.41;ICPMS_LA;;;0.94;3.18;ICPMS_LA;;;;;0.33;ICPMS_LA;;;26.5;ICPMS_LA;;;0.27;ICPMS_LA;;;0.03;ICPMS_LA;;;0.11;ICPMS_LA;;;0.03;0.14;ICPMS_LA;;;0.02;0.27;ICPMS_LA;;;0.05;;;;;;;;;2.67;ICPMS_LA;;;;;;;;;;;;;;;;;;;;;;;;;;;;;;;;;;;;;;;;;;;;;;;;;;;;;;;;;;;;;;54.4;26.1;;;;;;;;;;;;;19.51;;;;;;;;;;;;;;;;;;;;
2008;[12263] MACDONALD R.(2008)  [GeoReM [4079] ];samp. BB85.268;;EAST AFRICAN RIFT / KENYA RIFT (EASTERN EAST AFRICAN RIFT) / SOUTHERN KENYA RIFT / GREATER OLKARIA(NAIVASHA) / OLKARIA COMENDITE FORMATION;;-0.72;36.43;-0.72;36.43;;;OUTCROP;;;SUBAERIAL;VOLCANIC ROCK;BENMOREITE;;DIKE;0;20000;QUATERNARY;;;;;;;MINERAL / COMPONENT (INCL. GROUNDMASS);OLIVINE;FRESH;PHENOCRYST;CORE;PRIMARY;;;;;35.8;0.062;;;;0.025;;;;;;;;;;35.03;;;0.27;28.65;0.722;;;0;;;;;;;;;;;;;;;;;;;;;;;;;;;;;;;;;;;;;;;;;;;;;;;;;;;;;;;;;;;;;;;;;;;;;;;;;;;;;;;;;;;;;;;;;;;;;;;;;;;;;;;;;;;;;;;;;;;;;;;;;;;;;;;;;;;;;;;;;;;;;;;;;;;;;;;;;;;;;;;;;;;;;;;;;;;;;;;;;;;;;;;;;;;;;;;;;;;;;;;;;;;;;;;;;;;;;;;;;;;;;;;;;;;;;;;;;;;;;;;;;;;;;;;59.3;;;;;;;;;;;;;;;;;;;;;;;;;;;;
2008;[12263] MACDONALD R.(2008)  [GeoReM [4079] ];samp. BB85.268;;EAST AFRICAN RIFT / KENYA RIFT (EASTERN EAST AFRICAN RIFT) / SOUTHERN KENYA RIFT / GREATER OLKARIA(NAIVASHA) / OLKARIA COMENDITE FORMATION;;-0.72;36.43;-0.72;36.43;;;OUTCROP;;;SUBAERIAL;VOLCANIC ROCK;BENMOREITE;;DIKE;0;20000;QUATERNARY;;;;;;;MINERAL / COMPONENT (INCL. GROUNDMASS);OLIVINE;G;PHENOCRYST;CORE;PRIMARY;;;;;36.75;0.028;;;;0.023;;;;;;;;;;32.84;;;0.296;29.78;0.653;;;0;;;;;;;;;;;;;;;;;;;;;;;;;;;;;;;;;;;;;;;;;;;;;;;;;;;;;;;;;;;;;;;;;;;;;;;;;;;;;;;;;;;;;;;;;;;;;;;;;;;;;;;;;;;;;;;;;;;;;;;;;;;;;;;;;;;;;;;;;;;;;;;;;;;;;;;;;;;;;;;;;;;;;;;;;;;;;;;;;;;;;;;;;;;;;;;;;;;;;;;;;;;;;;;;;;;;;;;;;;;;;;;;;;;;;;;;;;;;;;;;;;;;;;;61.8;;;;;;;;;;;;;;;;;;;;;;;;;;;;
2008;[12263] MACDONALD R.(2008)  [GeoReM [4079] ];samp. BB85.268;;EAST AFRICAN RIFT / KENYA RIFT (EASTERN EAST AFRICAN RIFT) / SOUTHERN KENYA RIFT / GREATER OLKARIA(NAIVASHA) / OLKARIA COMENDITE FORMATION;;-0.72;36.43;-0.72;36.43;;;OUTCROP;;;SUBAERIAL;VOLCANIC ROCK;BENMOREITE;;DIKE;0;20000;QUATERNARY;;;;;;;MINERAL / COMPONENT (INCL. GROUNDMASS);OLIVINE;INTERMEDIATE ZONE;PHENOCRYST;CORE;PRIMARY;;;;;36.28;0.27;;;;0.023;;;;;;;;;;31.96;;;0.341;31.06;0.609;;;0.018;;;;;;;;;;;;;;;;;;;;;;;;;;;;;;;;;;;;;;;;;;;;;;;;;;;;;;;;;;;;;;;;;;;;;;;;;;;;;;;;;;;;;;;;;;;;;;;;;;;;;;;;;;;;;;;;;;;;;;;;;;;;;;;;;;;;;;;;;;;;;;;;;;;;;;;;;;;;;;;;;;;;;;;;;;;;;;;;;;;;;;;;;;;;;;;;;;;;;;;;;;;;;;;;;;;;;;;;;;;;;;;;;;;;;;;;;;;;;;;;;;;;;;;63.4;;;;;;;;;;;;;;;;;;;;;;;;;;;;
2008;[12263] MACDONALD R.(2008)  [GeoReM [4079] ];samp. BB85.268;;EAST AFRICAN RIFT / KENYA RIFT (EASTERN EAST AFRICAN RIFT) / SOUTHERN KENYA RIFT / GREATER OLKARIA(NAIVASHA) / OLKARIA COMENDITE FORMATION;;-0.72;36.43;-0.72;36.43;;;OUTCROP;;;SUBAERIAL;VOLCANIC ROCK;BENMOREITE;;DIKE;0;20000;QUATERNARY;;;;;;;MINERAL / COMPONENT (INCL. GROUNDMASS);OLIVINE;J;PHENOCRYST;CORE;PRIMARY;;;;;36.87;0.038;;;;0.025;;;;;;;;;;29.97;;;0.27;31.98;0.573;;;0;;;;;;;;;;;;;;;;;;;;;;;;;;;;;;;;;;;;;;;;;;;;;;;;;;;;;;;;;;;;;;;;;;;;;;;;;;;;;;;;;;;;;;;;;;;;;;;;;;;;;;;;;;;;;;;;;;;;;;;;;;;;;;;;;;;;;;;;;;;;;;;;;;;;;;;;;;;;;;;;;;;;;;;;;;;;;;;;;;;;;;;;;;;;;;;;;;;;;;;;;;;;;;;;;;;;;;;;;;;;;;;;;;;;;;;;;;;;;;;;;;;;;;;65.5;;;;;;;;;;;;;;;;;;;;;;;;;;;;
2008;[12263] MACDONALD R.(2008)  [GeoReM [4079] ];samp. BB85.278;;EAST AFRICAN RIFT / KENYA RIFT (EASTERN EAST AFRICAN RIFT) / SOUTHERN KENYA RIFT / GREATER OLKARIA(NAIVASHA);;-0.72;36.43;-0.72;36.43;;;OUTCROP;;;SUBAERIAL;VOLCANIC ROCK;BENMOREITE;;LAVA;0;20000;QUATERNARY;;;;;;;MINERAL / COMPONENT (INCL. GROUNDMASS);OLIVINE;DENDRITE;PHENOCRYST;CORE;PRIMARY;;;;;37.64;0.05;;;;0.06;;;;;;;;;;29.17;;;0.37;30.14;0.58;;;0;;;;;;;;;;;;;;;;;;;;;;;;;;;;;;;;;;;;;;;;;;;;;;;;;;;;;;;;;;;;;;;;;;;;;;;;;;;;;;;;;;;;;;;;;;;;;;;;;;;;;;;;;;;;;;;;;;;;;;;;;;;;;;;;;;;;;;;;;;;;;;;;;;;;;;;;;;;;;;;;;;;;;;;;;;;;;;;;;;;;;;;;;;;;;;;;;;;;;;;;;;;;;;;;;;;;;;;;;;;;;;;;;;;;;;;;;;;;;;;;;;;;;;;64.8;;;;;;;;;;;;;;;;;;;;;;;;;;;;
2008;[12263] MACDONALD R.(2008)  [GeoReM [4079] ];samp. BB85.278;;EAST AFRICAN RIFT / KENYA RIFT (EASTERN EAST AFRICAN RIFT) / SOUTHERN KENYA RIFT / GREATER OLKARIA(NAIVASHA);;-0.72;36.43;-0.72;36.43;;;OUTCROP;;;SUBAERIAL;VOLCANIC ROCK;BENMOREITE;;LAVA;0;20000;QUATERNARY;;;;;;;MINERAL / COMPONENT (INCL. GROUNDMASS);OLIVINE;FRESH;PHENOCRYST;CORE;PRIMARY;;;;;36.58;0.036;;;;0.01;;;;;;;;;;31.02;;;0.287;31.11;0.624;;;0.018;;;;;;;;;;;;;;;;;;;;;;;;;;;;;;;;;;;;;;;;;;;;;;;;;;;;;;;;;;;;;;;;;;;;;;;;;;;;;;;;;;;;;;;;;;;;;;;;;;;;;;;;;;;;;;;;;;;;;;;;;;;;;;;;;;;;;;;;;;;;;;;;;;;;;;;;;;;;;;;;;;;;;;;;;;;;;;;;;;;;;;;;;;;;;;;;;;;;;;;;;;;;;;;;;;;;;;;;;;;;;;;;;;;;;;;;;;;;;;;;;;;;;;;64.1;;;;;;;;;;;;;;;;;;;;;;;;;;;;
2008;[12263] MACDONALD R.(2008)  [GeoReM [4079] ];samp. BB85.278;;EAST AFRICAN RIFT / KENYA RIFT (EASTERN EAST AFRICAN RIFT) / SOUTHERN KENYA RIFT / GREATER OLKARIA(NAIVASHA);;-0.72;36.43;-0.72;36.43;;;OUTCROP;;;SUBAERIAL;VOLCANIC ROCK;BENMOREITE;;LAVA;0;20000;QUATERNARY;;;;;;;MINERAL / COMPONENT (INCL. GROUNDMASS);OLIVINE;G;PHENOCRYST;CORE;PRIMARY;;;;;36.7;0.075;;;;0.01;;;;;;;;;;29.44;;;0.278;31.12;0.582;;;0.018;;;;;;;;;;;;;;;;;;;;;;;;;;;;;;;;;;;;;;;;;;;;;;;;;;;;;;;;;;;;;;;;;;;;;;;;;;;;;;;;;;;;;;;;;;;;;;;;;;;;;;;;;;;;;;;;;;;;;;;;;;;;;;;;;;;;;;;;;;;;;;;;;;;;;;;;;;;;;;;;;;;;;;;;;;;;;;;;;;;;;;;;;;;;;;;;;;;;;;;;;;;;;;;;;;;;;;;;;;;;;;;;;;;;;;;;;;;;;;;;;;;;;;;65.3;;;;;;;;;;;;;;;;;;;;;;;;;;;;
2008;[12263] MACDONALD R.(2008)  [GeoReM [4079] ];samp. BB85.278;;EAST AFRICAN RIFT / KENYA RIFT (EASTERN EAST AFRICAN RIFT) / SOUTHERN KENYA RIFT / GREATER OLKARIA(NAIVASHA);;-0.72;36.43;-0.72;36.43;;;OUTCROP;;;SUBAERIAL;VOLCANIC ROCK;BENMOREITE;;LAVA;0;20000;QUATERNARY;;;;;;;MINERAL / COMPONENT (INCL. GROUNDMASS);OLIVINE;D3;PHENOCRYST;CORE;PRIMARY;;;;;33.55;0.08;;;;0.03;;;;;;;;;;50.09;;;0.5;15.89;1.36;;;0;;;;;;;;;;;;;;;;;;;;;;;;;;;;;;;;;;;;;;;;;;;;;;;;;;;;;;;;;;;;;;;;;;;;;;;;;;;;;;;;;;;;;;;;;;;;;;;;;;;;;;;;;;;;;;;;;;;;;;;;;;;;;;;;;;;;;;;;;;;;;;;;;;;;;;;;;;;;;;;;;;;;;;;;;;;;;;;;;;;;;;;;;;;;;;;;;;;;;;;;;;;;;;;;;;;;;;;;;;;;;;;;;;;;;;;;;;;;;;;;;;;;;;;36.1;;;;;;;;;;;;;;;;;;;;;;;;;;;;
2008;[12263] MACDONALD R.(2008)  [GeoReM [4079] ];samp. BB85.278;;EAST AFRICAN RIFT / KENYA RIFT (EASTERN EAST AFRICAN RIFT) / SOUTHERN KENYA RIFT / GREATER OLKARIA(NAIVASHA);;-0.72;36.43;-0.72;36.43;;;OUTCROP;;;SUBAERIAL;VOLCANIC ROCK;BENMOREITE;;LAVA;0;20000;QUATERNARY;;;;;;;MINERAL / COMPONENT (INCL. GROUNDMASS);OLIVINE;D2;PHENOCRYST;;PRIMARY;;;;;33.87;0.07;;;;0.01;;;;;;;;;;48.53;;;0.49;17.36;1.31;;;0;;;;;;;;;;;;;;;;;;;;;;;;;;;;;;;;;;;;;;;;;;;;;;;;;;;;;;;;;;;;;;;;;;;;;;;;;;;;;;;;;;;;;;;;;;;;;;;;;;;;;;;;;;;;;;;;;;;;;;;;;;;;;;;;;;;;;;;;;;;;;;;;;;;;;;;;;;;;;;;;;;;;;;;;;;;;;;;;;;;;;;;;;;;;;;;;;;;;;;;;;;;;;;;;;;;;;;;;;;;;;;;;;;;;;;;;;;;;;;;;;;;;;;;38.9;;;;;;;;;;;;;;;;;;;;;;;;;;;;
2008;[12263] MACDONALD R.(2008)  [GeoReM [4079] ];samp. BB85.278;;EAST AFRICAN RIFT / KENYA RIFT (EASTERN EAST AFRICAN RIFT) / SOUTHERN KENYA RIFT / GREATER OLKARIA(NAIVASHA);;-0.72;36.43;-0.72;36.43;;;OUTCROP;;;SUBAERIAL;VOLCANIC ROCK;BENMOREITE;;LAVA;0;20000;QUATERNARY;;;;;;;MINERAL / COMPONENT (INCL. GROUNDMASS);OLIVINE;D1;PHENOCRYST;RIM;PRIMARY;;;;;35.18;0.1;;;;0.01;;;;;;;;;;41.21;;;0.47;23.33;0.93;;;0;;;;;;;;;;;;;;;;;;;;;;;;;;;;;;;;;;;;;;;;;;;;;;;;;;;;;;;;;;;;;;;;;;;;;;;;;;;;;;;;;;;;;;;;;;;;;;;;;;;;;;;;;;;;;;;;;;;;;;;;;;;;;;;;;;;;;;;;;;;;;;;;;;;;;;;;;;;;;;;;;;;;;;;;;;;;;;;;;;;;;;;;;;;;;;;;;;;;;;;;;;;;;;;;;;;;;;;;;;;;;;;;;;;;;;;;;;;;;;;;;;;;;;;50.2;;;;;;;;;;;;;;;;;;;;;;;;;;;;