Year;CITATION;SAMPLE NAME;UNIQUE_ID;LOCATION;LOCATION COMMENT;LATITUDE (MIN.);LONGITUDE (MIN.);LATITUDE (MAX.);LONGITUDE (MAX.);ELEVATION (MIN.);ELEVATION (MAX.);SAMPLING TECHNIQUE;DRILLING DEPTH (MIN.);DRILLING DEPTH (MAX.);LAND/SEA (SAMPLING);ROCK TYPE;ROCK NAME;ROCK TEXTURE;SAMPLE COMMENT;AGE (MIN.);AGE (MAX.);GEOLOGICAL AGE;GEOLOGICAL AGE PREFIX;ERUPTION DAY;ERUPTION MONTH;ERUPTION YEAR;ALTERATION;ALTERATION TYPE;TYPE OF MATERIAL;MINERAL / COMPONENT;SPOT (MINERAL);CRYSTAL;RIM / CORE (MINERAL GRAINS);PRIMARY/SECONDARY;INCLUSION TYPE;MINERAL (INCLUSION);HOSTMINERAL (INCLUSION);HEATING;SIO2(WT%);TIO2(WT%);ZRO2(WT%);HFO2(WT%);THO2(WT%);AL2O3(WT%);CR2O3(WT%);LA2O3(WT%);CE2O3(WT%);ND2O3(WT%);SM2O3(WT%);V2O3(WT%);NB2O5(WT%);FE2O3T(WT%);FE2O3(WT%);FEOT(WT%);FEO(WT%);FET(WT%);CAO(WT%);MGO(WT%);MNO(WT%);BAO(WT%);SRO(WT%);NIO(WT%);ZNO(WT%);RB2O(WT%);K2O(WT%);;;;NA2O(WT%);P2O5(WT%);AS2O5(WT%);H2O(WT%);H2OP(WT%);H2OM(WT%);CO2(WT%);C(WT%);F(WT%);CL(WT%);OH(WT%);SO3(WT%);S(WT%);LOI(WT%);TI(WT%);CA(WT%);K(WT%);LI(PPM);BE(PPM);B(PPM);F(PPM);P(PPM);S(PPM);CL(PPM);AR40(AT/G);;;;AR40(CCMSTP/G);;;;AR40(MOL/G);;;;AR40(PPB);K(PPM);SC(PPM);;;;TI(PPM);V(PPM);;;;CR(PPM);;;;CO(PPM);;;;NI(PPM);;;;CU(PPM);;;;ZN(PPM);;;;GA(PPM);;;;GE(PPM);AS(PPM);AS(PPB);SE(PPM);RB(PPM);;;;;;SR(PPM);;;;;;Y(PPM);;;;ZR(PPM);;;;NB(PPM);;;;MO(PPM);AG(PPM);CD(PPM);IN(PPM);SN(PPM);SB(PPM): altern. values or methods;;;;TE(PPM);CS(PPM): altern. values or methods;;;;BA(PPM): altern. values or methods;;;;LA(PPM): altern. values or methods;;;;CE(PPM): altern. values or methods;;;;PR(PPM);ND(PPM): altern. values or methods;;;;;;SM(PPM): altern. values or methods;;;;EU(PPM): altern. values or methods;;;;GD(PPM): altern. values or methods;;;;TB(PPM): altern. values or methods;;;;DY(PPM): altern. values or methods;;;;HO(PPM);ER(PPM): altern. values or methods;;;;TM(PPM);YB(PPM): altern. values or methods;;;;LU(PPM);HF(PPM);TA(PPM);W(PPM);RE(PPM);AU(PPM);HG(PPM);HG(PPB);TL(PPM);PB(PPM): altern. values or methods;;;;BI(PPM);PO210_ACT(DPM/G);RA226_ACT(DPM/G);TH(PPM): altern. values or methods;;;;U(PPM): altern. values or methods;;;;ND143_ND144;ND143_ND144_INI;EPSILON_ND;EPSILON_ND_INI;SM147_ND144;SR87_SR86;SR87_SR86_INI;EPSILON_SR_INI;RB87_SR86;PB206_PB204: altern. values or methods;;;;PB206_PB204_INI;PB207_PB204: altern. values or methods;;;;PB207_PB204_INI;PB207_PB206;PB208_PB204: altern. values or methods;;;;PB208_PB204_INI;PB208_PB206;HF176_HF177;LU176_HF177;AR38_AR36;AR40_AR36;AR40_AR36_INI;PB206_U238;PB207_U235;RA226_TH230_ACT;PA231_U235_ACT;TH230_TH232_ACT;TH230_U238_ACT;TH232_PB204;U234_U238_ACT;U235_PB204;U238_PB204;U238_TH232_ACT;D7LI(VS LSVEC);D13C(VS PDB);D18O(PER MIL);D18O(VS SMOW);D18O(VS VSMOW);D34S(VS VCDT);ALBITE(MOL%);ANORTHITE(MOL%);CA OLIVINE(MOL%);CHROMITE(MOL%);ENSTATITE(MOL%);FAYALITE(MOL%);FORSTERITE(MOL%);FERROSILITE(MOL%);HEMATITE(MOL%);HERCYNITE(MOL%);ILMENITE(MOL%);MAGNESIOFERRITE(MOL%);MONTICELLITE(MOL%);MAGNETITE(MOL%);ORTHOCLASE(MOL%);PICROCHROMITE(MOL%);SPINEL(MOL%);TEPHROITE(MOL%);ULVOSPINEL(MOL%);WOLLASTONITE(MOL%);AGE(KA): altern. values or methods;;;;;;AGE(MA): altern. values or methods;;;;;;AGE_PB207_U235(MA);AGE_PB206_U238(MA);
2011;[15746] LEMASURIER W. E.(2011)  [GeoReM [6163] ];samp. BN7D-30;;ANTARCTICA / WEST ANTARCTIC RIFT SYSTEM / MARIE BYRD LAND / MOUNT BERLIN;;-76;-135.8;-76;-135.8;;;OUTCROP;;;SUBAERIAL;VOLCANIC ROCK;BENMOREITE;;;;;;;;;;;;MINERAL / COMPONENT (INCL. GROUNDMASS);CLINOPYROXENE;;PHENOCRYST;RIM;PRIMARY;;;;;49.18;0.14;;;;1.11;0;;;;;;;;;29.01;;;14.8;0.15;0.99;;;0;;;0;EMP (EPMA);;;4.53;;;;;;;;;;;;;;;;;;;;;;;;;;;;;;;;;;;;;;;;;;;;;;;;;;;;;;;;;;;;;;;;;;;;;;;;;;;;;;;;;;;;;;;;;;;;;;;;;;;;;;;;;;;;;;;;;;;;;;;;;;;;;;;;;;;;;;;;;;;;;;;;;;;;;;;;;;;;;;;;;;;;;;;;;;;;;;;;;;;;;;;;;;;;;;;;;;;;;;;;;;;;;;;;;;;;;;;;;;;;;;;;;;;;;;;;;;;;;;0.5;;;60.1;;;;;;;;;;;;39.3;;;;;;;;;;;;;;;
2011;[15746] LEMASURIER W. E.(2011)  [GeoReM [6163] ];samp. BN32A-10;;ANTARCTICA / WEST ANTARCTIC RIFT SYSTEM / MARIE BYRD LAND / MOUNT BERLIN;;-76;-135.8;-76;-135.8;;;OUTCROP;;;SUBAERIAL;VOLCANIC ROCK;BENMOREITE;;;;;;;;;;;;MINERAL / COMPONENT (INCL. GROUNDMASS);PLAGIOCLASE;;PHENOCRYST;CORE;PRIMARY;;;;;57.97;0.24;;;;25.19;;;;;;;;;;0.67;;;7.94;;;;;;;;0.6;EMP (EPMA);;;6.47;;;;;;;;;;;;;;;;;;;;;;;;;;;;;;;;;;;;;;;;;;;;;;;;;;;;;;;;;;;;;;;;;;;;;;;;;;;;;;;;;;;;;;;;;;;;;;;;;;;;;;;;;;;;;;;;;;;;;;;;;;;;;;;;;;;;;;;;;;;;;;;;;;;;;;;;;;;;;;;;;;;;;;;;;;;;;;;;;;;;;;;;;;;;;;;;;;;;;;;;;;;;;;;;;;;;;;;;;;;;;;;;;;;;;;;;;;57.5;39;;;;;;;;;;;;;3.5;;;;;;;;;;;;;;;;;;;;
2011;[15746] LEMASURIER W. E.(2011)  [GeoReM [6163] ];samp. BN32A-9;;ANTARCTICA / WEST ANTARCTIC RIFT SYSTEM / MARIE BYRD LAND / MOUNT BERLIN;;-76;-135.8;-76;-135.8;;;OUTCROP;;;SUBAERIAL;VOLCANIC ROCK;BENMOREITE;;;;;;;;;;;;MINERAL / COMPONENT (INCL. GROUNDMASS);PLAGIOCLASE;;PHENOCRYST;RIM;PRIMARY;;;;;61.14;0.39;;;;23.44;0.19;;;;;;;;;0.58;;;5.4;;0.2;;;0.24;;;1.26;EMP (EPMA);;;7.72;;;;;;;;;;;;;;;;;;;;;;;;;;;;;;;;;;;;;;;;;;;;;;;;;;;;;;;;;;;;;;;;;;;;;;;;;;;;;;;;;;;;;;;;;;;;;;;;;;;;;;;;;;;;;;;;;;;;;;;;;;;;;;;;;;;;;;;;;;;;;;;;;;;;;;;;;;;;;;;;;;;;;;;;;;;;;;;;;;;;;;;;;;;;;;;;;;;;;;;;;;;;;;;;;;;;;;;;;;;;;;;;;;;;;;;;;;67;25.9;;;;;;;;;;;;;7.2;;;;;;;;;;;;;;;;;;;;
2011;[15746] LEMASURIER W. E.(2011)  [GeoReM [6163] ];samp. BN7B-16;;ANTARCTICA / WEST ANTARCTIC RIFT SYSTEM / MARIE BYRD LAND / MOUNT BERLIN;;-76;-135.8;-76;-135.8;;;OUTCROP;;;SUBAERIAL;VOLCANIC ROCK;BENMOREITE;;;;;;;;;;;;MINERAL / COMPONENT (INCL. GROUNDMASS);PLAGIOCLASE;;PHENOCRYST;CORE;PRIMARY;;;;;64.43;;;;;22.8;;;;;;;;;;0.23;;;3.77;;;;;;;;2.14;EMP (EPMA);;;7.86;;;;;;;;;;;;;;;;;;;;;;;;;;;;;;;;;;;;;;;;;;;;;;;;;;;;;;;;;;;;;;;;;;;;;;;;;;;;;;;;;;;;;;;;;;;;;;;;;;;;;;;;;;;;;;;;;;;;;;;;;;;;;;;;;;;;;;;;;;;;;;;;;;;;;;;;;;;;;;;;;;;;;;;;;;;;;;;;;;;;;;;;;;;;;;;;;;;;;;;;;;;;;;;;;;;;;;;;;;;;;;;;;;;;;;;;;;69.2;18.3;;;;;;;;;;;;;12.4;;;;;;;;;;;;;;;;;;;;
2011;[15746] LEMASURIER W. E.(2011)  [GeoReM [6163] ];samp. BN7B-17;;ANTARCTICA / WEST ANTARCTIC RIFT SYSTEM / MARIE BYRD LAND / MOUNT BERLIN;;-76;-135.8;-76;-135.8;;;OUTCROP;;;SUBAERIAL;VOLCANIC ROCK;BENMOREITE;;;;;;;;;;;;MINERAL / COMPONENT (INCL. GROUNDMASS);PLAGIOCLASE;;PHENOCRYST;RIM;PRIMARY;;;;;64.16;;;;;22.35;;;;;;;;;;0.43;;;3.47;;;;;;;;2.14;EMP (EPMA);;;8.04;;;;;;;;;;;;;;;;;;;;;;;;;;;;;;;;;;;;;;;;;;;;;;;;;;;;;;;;;;;;;;;;;;;;;;;;;;;;;;;;;;;;;;;;;;;;;;;;;;;;;;;;;;;;;;;;;;;;;;;;;;;;;;;;;;;;;;;;;;;;;;;;;;;;;;;;;;;;;;;;;;;;;;;;;;;;;;;;;;;;;;;;;;;;;;;;;;;;;;;;;;;;;;;;;;;;;;;;;;;;;;;;;;;;;;;;;;70.8;16.9;;;;;;;;;;;;;12.4;;;;;;;;;;;;;;;;;;;;
2011;[15746] LEMASURIER W. E.(2011)  [GeoReM [6163] ];samp. BN7A-25;;ANTARCTICA / WEST ANTARCTIC RIFT SYSTEM / MARIE BYRD LAND / MOUNT BERLIN;;-76;-135.8;-76;-135.8;;;OUTCROP;;;SUBAERIAL;VOLCANIC ROCK;BENMOREITE;;;;;;;;;;;;MINERAL / COMPONENT (INCL. GROUNDMASS);KATOPHORITE;;;;PRIMARY;;;;;48.51;2.93;;;;2.43;;;;;;;;;;26.33;;;5.89;5.62;0.72;;;;;;1.21;EMP (EPMA);;;5.52;;;;;;;;;;;;;;;;;;;;;;;;;;;;;;;;;;;;;;;;;;;;;;;;;;;;;;;;;;;;;;;;;;;;;;;;;;;;;;;;;;;;;;;;;;;;;;;;;;;;;;;;;;;;;;;;;;;;;;;;;;;;;;;;;;;;;;;;;;;;;;;;;;;;;;;;;;;;;;;;;;;;;;;;;;;;;;;;;;;;;;;;;;;;;;;;;;;;;;;;;;;;;;;;;;;;;;;;;;;;;;;;;;;;;;;;;;;;;;;;;;;;;;;;;;;;;;;;;;;;;;;;;;;;
2011;[15746] LEMASURIER W. E.(2011)  [GeoReM [6163] ];samp. BN7B-30;;ANTARCTICA / WEST ANTARCTIC RIFT SYSTEM / MARIE BYRD LAND / MOUNT BERLIN;;-76;-135.8;-76;-135.8;;;OUTCROP;;;SUBAERIAL;VOLCANIC ROCK;BENMOREITE;;;;;;;;;;;;MINERAL / COMPONENT (INCL. GROUNDMASS);TITANO-MAGNETITE;;MICROPHENOCRYST;;PRIMARY;;;;;0.85;25.75;;;;1.7;0.4;;;;;;;;;66.1;;;0.15;1.59;1.2;;;0.35;;;;;;;;;;;;;;;;;;;;;;;;;;;;;;;;;;;;;;;;;;;;;;;;;;;;;;;;;;;;;;;;;;;;;;;;;;;;;;;;;;;;;;;;;;;;;;;;;;;;;;;;;;;;;;;;;;;;;;;;;;;;;;;;;;;;;;;;;;;;;;;;;;;;;;;;;;;;;;;;;;;;;;;;;;;;;;;;;;;;;;;;;;;;;;;;;;;;;;;;;;;;;;;;;;;;;;;;;;;;;;;;;;;;;;;;;;;;;;;;;;;;;;;;;;;;;;;;;;;;;;;;;;;;;;;;;;;
2011;[15746] LEMASURIER W. E.(2011)  [GeoReM [6163] ];samp. BN7D-24;;ANTARCTICA / WEST ANTARCTIC RIFT SYSTEM / MARIE BYRD LAND / MOUNT BERLIN;;-76;-135.8;-76;-135.8;;;OUTCROP;;;SUBAERIAL;VOLCANIC ROCK;BENMOREITE;;;;;;;;;;;;MINERAL / COMPONENT (INCL. GROUNDMASS);TITANO-MAGNETITE;;GROUNDMASS;;PRIMARY;;;;;;6.63;;;;1.32;0.14;;;;;;;;;86.09;;;;0.51;0.82;;;;;;0.08;EMP (EPMA);;;0.29;;;;;;;;;;;;;;;;;;;;;;;;;;;;;;;;;;;;;;;;;;;;;;;;;;;;;;;;;;;;;;;;;;;;;;;;;;;;;;;;;;;;;;;;;;;;;;;;;;;;;;;;;;;;;;;;;;;;;;;;;;;;;;;;;;;;;;;;;;;;;;;;;;;;;;;;;;;;;;;;;;;;;;;;;;;;;;;;;;;;;;;;;;;;;;;;;;;;;;;;;;;;;;;;;;;;;;;;;;;;;;;;;;;;;;;;;;;;;;;;;;;;;;;;;;;;;;;;;;;;;;;;;;;;
2011;[15746] LEMASURIER W. E.(2011)  [GeoReM [6163] ];samp. BN7D-7;;ANTARCTICA / WEST ANTARCTIC RIFT SYSTEM / MARIE BYRD LAND / MOUNT BERLIN;;-76;-135.8;-76;-135.8;;;OUTCROP;;;SUBAERIAL;VOLCANIC ROCK;BENMOREITE;;;;;;;;;;;;MINERAL / COMPONENT (INCL. GROUNDMASS);NEPHELINE;;GROUNDMASS;;PRIMARY;;;;;49.44;;;;;28.55;;;;;;;;;;2.92;;;;;0.18;;;;;;2.76;EMP (EPMA);;;16.78;;;;;;;;;;;;;;;;;;;;;;;;;;;;;;;;;;;;;;;;;;;;;;;;;;;;;;;;;;;;;;;;;;;;;;;;;;;;;;;;;;;;;;;;;;;;;;;;;;;;;;;;;;;;;;;;;;;;;;;;;;;;;;;;;;;;;;;;;;;;;;;;;;;;;;;;;;;;;;;;;;;;;;;;;;;;;;;;;;;;;;;;;;;;;;;;;;;;;;;;;;;;;;;;;;;;;;;;;;;;;;;;;;;;;;;;;;;;;;;;;;;;;;;;;;;;;;;;;;;;;;;;;;;;
2011;[15746] LEMASURIER W. E.(2011)  [GeoReM [6163] ];samp. BN7D-6;;ANTARCTICA / WEST ANTARCTIC RIFT SYSTEM / MARIE BYRD LAND / MOUNT BERLIN;;-76;-135.8;-76;-135.8;;;OUTCROP;;;SUBAERIAL;VOLCANIC ROCK;BENMOREITE;;;;;;;;;;;;MINERAL / COMPONENT (INCL. GROUNDMASS);SODALITE;;GROUNDMASS;;PRIMARY;;;;;39.21;;;;;29.79;;;;;;;;;;1.79;;;;;;;;;;;;;;;23.48;;;;;;;;;6.19;;0.29;;;;;;;;;;;;;;;;;;;;;;;;;;;;;;;;;;;;;;;;;;;;;;;;;;;;;;;;;;;;;;;;;;;;;;;;;;;;;;;;;;;;;;;;;;;;;;;;;;;;;;;;;;;;;;;;;;;;;;;;;;;;;;;;;;;;;;;;;;;;;;;;;;;;;;;;;;;;;;;;;;;;;;;;;;;;;;;;;;;;;;;;;;;;;;;;;;;;;;;;;;;;;;;;;;;;;;;;;;;;;;;;;;;;;;;;;;;;;;;;;;;;;;;;;;;;;;;;;
2012;[15775] CUBUKCU H. E. (2012);samp. N-222;;ANATOLIA-IRAN BELT / TURKEY / EASTERN ANATOLIAN VOLCANIC BELT / NEMRUT / PRE-CALDERA STAGE;;38.67;42.2;38.67;42.2;;;OUTCROP;;;SUBAERIAL;VOLCANIC ROCK;BENMOREITE;;ENCLAVE;;;QUATERNARY;;;;;;;WHOLE ROCK;;;;;;;;;;59.4813010870481;1.21793427230047;;;;16.9178396072013;;;;;;;;7.48411497730711;;;;;4.43800135961931;1.58834080717489;0.191346578366446;;;;;;2.35898876404494;ICPAES;;;5.77413114754098;0.456122448979592;;;;;;;;;;;;0.129961011696543;;;;;;;;;;;;;;;;;;;;;;;;;;;;;;;;;;;;;;;;;;;;;;;;;;;;;;;;;;;;;;;;;;;;;;;;;;;;;;;;;;;;;;;;;;;;;;;;;;;;;;;;;;;;;;;;;;;;;;;;;;;;;;;;;;;;;;;;;;;;;;;;;;;;;;;;;;;;;;;;;;;;;;;;;;;;;;;;;;;;;;;;;;;;;;;;;;;;;;;;;;;;;;;;;;;;;;;;;;;;;;;;;;;;;;;;;;;;;;;;;;;;;;;;;;;;;;;
2012;[15775] CUBUKCU H. E. (2012);samp. N-013;;ANATOLIA-IRAN BELT / TURKEY / EASTERN ANATOLIAN VOLCANIC BELT / NEMRUT / POST-CALDERA STAGE;;38.67;42.2;38.67;42.2;;;OUTCROP;;;SUBAERIAL;VOLCANIC ROCK;BENMOREITE;;ENCLAVE;;;QUATERNARY;;;;;;;WHOLE ROCK;;;;;;;;;;56.442266824085;1.83037735849057;;;;14.6095424836601;;;;;;;;9.50502512562814;;;;;5.80246913580247;3.97097505668934;0.146666666666667;;;;;;2.17167630057803;ICPAES;;;4.51953795379538;0.262096774193548;;;;;;;;;;;;0.158177791838032;;;;;;;;;;;;;;;;;;;;;;;;;;;;;;172.4;MS;;;33.33;MS;;;271.4;MS;;;29.15;MS;;;23.55;MS;;;122.6;MS;;;26.32;MS;;;1.775;;;;83.74;MS;;;;;244.1;MS;;;;;60.62;MS;;;430.4;MS;;;30.94;MS;;;;;;;;;;;;;3.531;MS;;;49.69;MS;;;37.19;MS;;;79.4;MS;;;9.81;38.35;MS;;;;;9.231;MS;;;1.39;MS;;;9.487;MS;;;1.637;MS;;;10.24;MS;;;2.105;6.178;MS;;;0.941;6.394;MS;;;0.98;9.609;4.466;;;;;;;12.5093;MS;;;;;;11.94;MS;;;4.099;MS;;;;;;;;;;;;;;;;;;;;;;;;;;;;;;;;;;;;;;;;;;;;;;;;;;;;;;;;;;;;;;;;;;;;;;;;;;;;;;;;;;;;;
2012;[15775] CUBUKCU H. E. (2012);samp. N-033;;ANATOLIA-IRAN BELT / TURKEY / EASTERN ANATOLIAN VOLCANIC BELT / NEMRUT / POST-CALDERA STAGE;;38.67;42.2;38.67;42.2;;;OUTCROP;;;SUBAERIAL;VOLCANIC ROCK;BENMOREITE;;ENCLAVE;;;QUATERNARY;;;;;;;WHOLE ROCK;;;;;;;;;;56.7489170896785;1.61443396226415;;;;16.9937302020754;;;;;;;;8.83603238866397;;;;;5.54548563611491;2.22483069977427;0.196533333333333;;;;;;1.99943181818182;ICPAES;;;5.50789473684211;0.514583333333333;;;;;;;;;;;;0.110022004400979;;;;;;;;;;;;;;;;;;;;;;;;;;;;;;;;;;;;;;;;;;;;;;;;;;;;;;;;;;;;;;;;;;;;;;;;;;;;;;;;;;;;;;;;;;;;;;;;;;;;;;;;;;;;;;;;;;;;;;;;;;;;;;;;;;;;;;;;;;;;;;;;;;;;;;;;;;;;;;;;;;;;;;;;;;;;;;;;;;;;;;;;;;;;;;;;;;;;;;;;;;;;;;;;;;;;;;;;;;;;;;;;;;;;;;;;;;;;;;;;;;;;;;;;;;;;;;;
2012;[15775] CUBUKCU H. E. (2012);samp. N-050;;ANATOLIA-IRAN BELT / TURKEY / EASTERN ANATOLIAN VOLCANIC BELT / NEMRUT / POST-CALDERA STAGE;;38.67;42.2;38.67;42.2;;;OUTCROP;;;SUBAERIAL;VOLCANIC ROCK;BENMOREITE;;ENCLAVE;;;QUATERNARY;;;;;;;WHOLE ROCK;;;;;;;;;;57.1155583756345;1.56301886792453;;;;17.1946695794648;;;;;;;;8.52186234817814;;;;;5.52619699042408;2.26455981941309;0.187733333333333;;;;;;2.01875;ICPAES;;;5.30134868421053;0.532291666666667;;;;;;;;;;;;0.130026005201093;;;;;;;;;;;;;;;;;;;;;;;;;;;;;;75.63;MS;;;4.686;MS;;;68.4;MS;;;4.9;MS;;;8.701;MS;;;103.3;MS;;;24.09;MS;;;1.508;;;;43.65;MS;;;;;337.4;MS;;;;;41.16;MS;;;360.1;MS;;;17.25;MS;;;;;;;;;;;;;1.963;MS;;;430.8;MS;;;28.01;MS;;;60.79;MS;;;7.9;33.43;MS;;;;;7.819;MS;;;2.999;MS;;;7.922;MS;;;1.234;MS;;;7.195;MS;;;1.431;4.005;MS;;;0.586;3.959;MS;;;0.621;6.601;1.717;;;;;;;8.127;MS;;;;;;5.626;MS;;;2.111;MS;;;;;;;;;;;;;;;;;;;;;;;;;;;;;;;;;;;;;;;;;;;;;;;;;;;;;;;;;;;;;;;;;;;;;;;;;;;;;;;;;;;;;
2012;[15775] CUBUKCU H. E. (2012);samp. N-256;;ANATOLIA-IRAN BELT / TURKEY / EASTERN ANATOLIAN VOLCANIC BELT / NEMRUT / POST-CALDERA STAGE;;38.67;42.2;38.67;42.2;;;OUTCROP;;;SUBAERIAL;VOLCANIC ROCK;BENMOREITE;;ENCLAVE;;;QUATERNARY;;;;;;;WHOLE ROCK;;;;;;;;;;59.5096698113208;1.53521126760563;;;;14.3510819672131;;;;;;;;8.47221381744831;;;;;4.9010183299389;3.45117318435754;0.133450549450549;;;;;;2.44345403899721;ICPAES;;;4.52646003262643;0.221774193548387;;;;;;;;;;;;0.120024004801035;;;;;;;;;;;;;;;;;;;;;;;;;;;;;;143.5;MS;;;28.89;MS;;;167.7;MS;;;25.46;MS;;;19.86;MS;;;123.7;MS;;;27.18;MS;;;1.911;;;;99.96;MS;;;;;202.8;MS;;;;;67.06;MS;;;484.1;MS;;;35.61;MS;;;;;;;;;;;;;4.235;MS;;;46.05;MS;;;42.35;MS;;;89.97;MS;;;10.91;42.21;MS;;;;;9.97;MS;;;1.211;MS;;;9.932;MS;;;1.767;MS;;;11.06;MS;;;2.271;6.723;MS;;;1.039;7.084;MS;;;1.081;10.87;3.761;;;;;;;15.0014;MS;;;;;;14;MS;;;4.821;MS;;;;;;;;;;;;;;;;;;;;;;;;;;;;;;;;;;;;;;;;;;;;;;;;;;;;;;;;;;;;;;;;;;;;;;;;;;;;;;;;;;;;;
2012;[15775] CUBUKCU H. E. (2012);samp. N-011;;ANATOLIA-IRAN BELT / TURKEY / EASTERN ANATOLIAN VOLCANIC BELT / NEMRUT / POST-CALDERA STAGE;;38.67;42.2;38.67;42.2;;;OUTCROP;;;SUBAERIAL;VOLCANIC ROCK;BENMOREITE;;;;;QUATERNARY;;;;;;;MINERAL / COMPONENT (INCL. GROUNDMASS);PLAGIOCLASE;;;CORE;PRIMARY;;;;;52.15;;;;;30.71;;;;;;;;;;0.55;;;13.29;0.13;;;;;;;0.13;EMP (EPMA);;;3.94;;;;;;;;;;;;;;;;;;;;;;;;;;;;;;;;;;;;;;;;;;;;;;;;;;;;;;;;;;;;;;;;;;;;;;;;;;;;;;;;;;;;;;;;;;;;;;;;;;;;;;;;;;;;;;;;;;;;;;;;;;;;;;;;;;;;;;;;;;;;;;;;;;;;;;;;;;;;;;;;;;;;;;;;;;;;;;;;;;;;;;;;;;;;;;;;;;;;;;;;;;;;;;;;;;;;;;;;;;;;;;;;;;;;;;;;;;34.68;64.56;;;;;;;;;;;;;0.76;;;;;;;;;;;;;;;;;;;;
2012;[15775] CUBUKCU H. E. (2012);samp. N-011;;ANATOLIA-IRAN BELT / TURKEY / EASTERN ANATOLIAN VOLCANIC BELT / NEMRUT / POST-CALDERA STAGE;;38.67;42.2;38.67;42.2;;;OUTCROP;;;SUBAERIAL;VOLCANIC ROCK;BENMOREITE;;;;;QUATERNARY;;;;;;;MINERAL / COMPONENT (INCL. GROUNDMASS);PLAGIOCLASE;;;RIM;PRIMARY;;;;;51.74;;;;;31.29;;;;;;;;;;0.72;;;13.67;0.15;;;;;;;0.11;EMP (EPMA);;;3.79;;;;;;;;;;;;;;;;;;;;;;;;;;;;;;;;;;;;;;;;;;;;;;;;;;;;;;;;;;;;;;;;;;;;;;;;;;;;;;;;;;;;;;;;;;;;;;;;;;;;;;;;;;;;;;;;;;;;;;;;;;;;;;;;;;;;;;;;;;;;;;;;;;;;;;;;;;;;;;;;;;;;;;;;;;;;;;;;;;;;;;;;;;;;;;;;;;;;;;;;;;;;;;;;;;;;;;;;;;;;;;;;;;;;;;;;;;33.21;66.13;;;;;;;;;;;;;0.66;;;;;;;;;;;;;;;;;;;;
2012;[15775] CUBUKCU H. E. (2012);samp. N-050;;ANATOLIA-IRAN BELT / TURKEY / EASTERN ANATOLIAN VOLCANIC BELT / NEMRUT / POST-CALDERA STAGE;;38.67;42.2;38.67;42.2;;;OUTCROP;;;SUBAERIAL;VOLCANIC ROCK;BENMOREITE;;ENCLAVE;;;QUATERNARY;;;;;;;MINERAL / COMPONENT (INCL. GROUNDMASS);PLAGIOCLASE;;;CORE;PRIMARY;;;;;58.2;;;;;25.82;;;;;;;;;;0.37;;;7.93;0.02;;;;;;;0.44;EMP (EPMA);;;6.99;;;;;;;;;;;;;;;;;;;;;;;;;;;;;;;;;;;;;;;;;;;;;;;;;;;;;;;;;;;;;;;;;;;;;;;;;;;;;;;;;;;;;;;;;;;;;;;;;;;;;;;;;;;;;;;;;;;;;;;;;;;;;;;;;;;;;;;;;;;;;;;;;;;;;;;;;;;;;;;;;;;;;;;;;;;;;;;;;;;;;;;;;;;;;;;;;;;;;;;;;;;;;;;;;;;;;;;;;;;;;;;;;;;;;;;;;;59.98;37.57;;;;;;;;;;;;;2.45;;;;;;;;;;;;;;;;;;;;
2012;[15775] CUBUKCU H. E. (2012);samp. N-050;;ANATOLIA-IRAN BELT / TURKEY / EASTERN ANATOLIAN VOLCANIC BELT / NEMRUT / POST-CALDERA STAGE;;38.67;42.2;38.67;42.2;;;OUTCROP;;;SUBAERIAL;VOLCANIC ROCK;BENMOREITE;;ENCLAVE;;;QUATERNARY;;;;;;;MINERAL / COMPONENT (INCL. GROUNDMASS);PLAGIOCLASE;;;RIM;PRIMARY;;;;;58.65;;;;;25.49;;;;;;;;;;0.28;;;7.46;0;;;;;;;0.51;EMP (EPMA);;;7.22;;;;;;;;;;;;;;;;;;;;;;;;;;;;;;;;;;;;;;;;;;;;;;;;;;;;;;;;;;;;;;;;;;;;;;;;;;;;;;;;;;;;;;;;;;;;;;;;;;;;;;;;;;;;;;;;;;;;;;;;;;;;;;;;;;;;;;;;;;;;;;;;;;;;;;;;;;;;;;;;;;;;;;;;;;;;;;;;;;;;;;;;;;;;;;;;;;;;;;;;;;;;;;;;;;;;;;;;;;;;;;;;;;;;;;;;;;61.82;35.29;;;;;;;;;;;;;2.89;;;;;;;;;;;;;;;;;;;;
2012;[15775] CUBUKCU H. E. (2012);samp. N-256;;ANATOLIA-IRAN BELT / TURKEY / EASTERN ANATOLIAN VOLCANIC BELT / NEMRUT / POST-CALDERA STAGE;;38.67;42.2;38.67;42.2;;;OUTCROP;;;SUBAERIAL;VOLCANIC ROCK;BENMOREITE;;ENCLAVE;;;QUATERNARY;;;;;;;MINERAL / COMPONENT (INCL. GROUNDMASS);PLAGIOCLASE;;;CORE;PRIMARY;;;;;54.56;;;;;28.14;;;;;;;;;;0.42;;;10.86;0.08;;;;;;;0.19;EMP (EPMA);;;5.22;;;;;;;;;;;;;;;;;;;;;;;;;;;;;;;;;;;;;;;;;;;;;;;;;;;;;;;;;;;;;;;;;;;;;;;;;;;;;;;;;;;;;;;;;;;;;;;;;;;;;;;;;;;;;;;;;;;;;;;;;;;;;;;;;;;;;;;;;;;;;;;;;;;;;;;;;;;;;;;;;;;;;;;;;;;;;;;;;;;;;;;;;;;;;;;;;;;;;;;;;;;;;;;;;;;;;;;;;;;;;;;;;;;;;;;;;;45.99;52.91;;;;;;;;;;;;;1.1;;;;;;;;;;;;;;;;;;;;
2012;[15775] CUBUKCU H. E. (2012);samp. N-256;;ANATOLIA-IRAN BELT / TURKEY / EASTERN ANATOLIAN VOLCANIC BELT / NEMRUT / POST-CALDERA STAGE;;38.67;42.2;38.67;42.2;;;OUTCROP;;;SUBAERIAL;VOLCANIC ROCK;BENMOREITE;;ENCLAVE;;;QUATERNARY;;;;;;;MINERAL / COMPONENT (INCL. GROUNDMASS);PLAGIOCLASE;;;CORE;PRIMARY;;;;;54.02;;;;;28.22;;;;;;;;;;0.54;;;11.45;0.08;;;;;;;0.18;EMP (EPMA);;;4.95;;;;;;;;;;;;;;;;;;;;;;;;;;;;;;;;;;;;;;;;;;;;;;;;;;;;;;;;;;;;;;;;;;;;;;;;;;;;;;;;;;;;;;;;;;;;;;;;;;;;;;;;;;;;;;;;;;;;;;;;;;;;;;;;;;;;;;;;;;;;;;;;;;;;;;;;;;;;;;;;;;;;;;;;;;;;;;;;;;;;;;;;;;;;;;;;;;;;;;;;;;;;;;;;;;;;;;;;;;;;;;;;;;;;;;;;;;43.43;55.52;;;;;;;;;;;;;1.06;;;;;;;;;;;;;;;;;;;;
2012;[15775] CUBUKCU H. E. (2012);samp. N-256;;ANATOLIA-IRAN BELT / TURKEY / EASTERN ANATOLIAN VOLCANIC BELT / NEMRUT / POST-CALDERA STAGE;;38.67;42.2;38.67;42.2;;;OUTCROP;;;SUBAERIAL;VOLCANIC ROCK;BENMOREITE;;ENCLAVE;;;QUATERNARY;;;;;;;MINERAL / COMPONENT (INCL. GROUNDMASS);PLAGIOCLASE;;;RIM;PRIMARY;;;;;64.14;;;;;21.73;;;;;;;;;;0.2;;;3.28;0.03;;;;;;;1.49;EMP (EPMA);;;8.9;;;;;;;;;;;;;;;;;;;;;;;;;;;;;;;;;;;;;;;;;;;;;;;;;;;;;;;;;;;;;;;;;;;;;;;;;;;;;;;;;;;;;;;;;;;;;;;;;;;;;;;;;;;;;;;;;;;;;;;;;;;;;;;;;;;;;;;;;;;;;;;;;;;;;;;;;;;;;;;;;;;;;;;;;;;;;;;;;;;;;;;;;;;;;;;;;;;;;;;;;;;;;;;;;;;;;;;;;;;;;;;;;;;;;;;;;;76.15;15.49;;;;;;;;;;;;;8.36;;;;;;;;;;;;;;;;;;;;
2012;[15775] CUBUKCU H. E. (2012);samp. N-225;;ANATOLIA-IRAN BELT / TURKEY / EASTERN ANATOLIAN VOLCANIC BELT / NEMRUT / POST-CALDERA STAGE;;38.67;42.2;38.67;42.2;;;OUTCROP;;;SUBAERIAL;VOLCANIC ROCK;BENMOREITE;;ENCLAV;;;QUATERNARY;;;;;;;MINERAL / COMPONENT (INCL. GROUNDMASS);PYROXENE;;;CORE;PRIMARY;;;;;52.41;0.89;;;;2.43;;;;;;;;;;10.73;;;18.07;14.39;0;;;;;;;;;;0.21;;;;;;;;;;;;;;;;;;;;;;;;;;;;;;;;;;;;;;;;;;;;;;;;;;;;;;;;;;;;;;;;;;;;;;;;;;;;;;;;;;;;;;;;;;;;;;;;;;;;;;;;;;;;;;;;;;;;;;;;;;;;;;;;;;;;;;;;;;;;;;;;;;;;;;;;;;;;;;;;;;;;;;;;;;;;;;;;;;;;;;;;;;;;;;;;;;;;;;;;;;;;;;;;;;;;;;;;;;;;;;;;;;;;;;;;;;;;;;43.07;;;18.02;;;;;;;;;;;;38.91;;;;;;;;;;;;;;;
2012;[15775] CUBUKCU H. E. (2012);samp. N-256;;ANATOLIA-IRAN BELT / TURKEY / EASTERN ANATOLIAN VOLCANIC BELT / NEMRUT / POST-CALDERA STAGE;;38.67;42.2;38.67;42.2;;;OUTCROP;;;SUBAERIAL;VOLCANIC ROCK;BENMOREITE;;ENCLAVE;;;QUATERNARY;;;;;;;MINERAL / COMPONENT (INCL. GROUNDMASS);PYROXENE;;;CORE;PRIMARY;;;;;48.33;2.14;;;;4.45;;;;;;;;;;11.9;;;19.03;13.01;0.4;;;;;;;;;;0.52;;;;;;;;;;;;;;;;;;;;;;;;;;;;;;;;;;;;;;;;;;;;;;;;;;;;;;;;;;;;;;;;;;;;;;;;;;;;;;;;;;;;;;;;;;;;;;;;;;;;;;;;;;;;;;;;;;;;;;;;;;;;;;;;;;;;;;;;;;;;;;;;;;;;;;;;;;;;;;;;;;;;;;;;;;;;;;;;;;;;;;;;;;;;;;;;;;;;;;;;;;;;;;;;;;;;;;;;;;;;;;;;;;;;;;;;;;;;;;38.73;;;20.58;;;;;;;;;;;;40.69;;;;;;;;;;;;;;;