Year;CITATION;SAMPLE NAME;UNIQUE_ID;LOCATION;LOCATION COMMENT;LATITUDE (MIN.);LONGITUDE (MIN.);LATITUDE (MAX.);LONGITUDE (MAX.);ELEVATION (MIN.);ELEVATION (MAX.);SAMPLING TECHNIQUE;DRILLING DEPTH (MIN.);DRILLING DEPTH (MAX.);LAND/SEA (SAMPLING);ROCK TYPE;ROCK NAME;ROCK TEXTURE;SAMPLE COMMENT;AGE (MIN.);AGE (MAX.);GEOLOGICAL AGE;GEOLOGICAL AGE PREFIX;ERUPTION DAY;ERUPTION MONTH;ERUPTION YEAR;ALTERATION;ALTERATION TYPE;TYPE OF MATERIAL;MINERAL / COMPONENT;SPOT (MINERAL);CRYSTAL;RIM / CORE (MINERAL GRAINS);PRIMARY/SECONDARY;INCLUSION TYPE;MINERAL (INCLUSION);HOSTMINERAL (INCLUSION);HEATING;SIO2(WT%);TIO2(WT%);ZRO2(WT%);HFO2(WT%);THO2(WT%);AL2O3(WT%);CR2O3(WT%);LA2O3(WT%);CE2O3(WT%);ND2O3(WT%);SM2O3(WT%);V2O3(WT%);NB2O5(WT%);FE2O3T(WT%);FE2O3(WT%);FEOT(WT%);FEO(WT%);FET(WT%);CAO(WT%);MGO(WT%);MNO(WT%);BAO(WT%);SRO(WT%);NIO(WT%);ZNO(WT%);RB2O(WT%);K2O(WT%);;;;NA2O(WT%);P2O5(WT%);AS2O5(WT%);H2O(WT%);H2OP(WT%);H2OM(WT%);CO2(WT%);C(WT%);F(WT%);CL(WT%);OH(WT%);SO3(WT%);S(WT%);LOI(WT%);TI(WT%);CA(WT%);K(WT%);LI(PPM);BE(PPM);B(PPM);F(PPM);P(PPM);S(PPM);CL(PPM);AR40(AT/G);;;;AR40(CCMSTP/G);;;;AR40(MOL/G);;;;AR40(PPB);K(PPM);SC(PPM);;;;TI(PPM);V(PPM);;;;CR(PPM);;;;CO(PPM);;;;NI(PPM);;;;CU(PPM);;;;ZN(PPM);;;;GA(PPM);;;;GE(PPM);AS(PPM);AS(PPB);SE(PPM);RB(PPM);;;;;;SR(PPM);;;;;;Y(PPM);;;;ZR(PPM);;;;NB(PPM);;;;MO(PPM);AG(PPM);CD(PPM);IN(PPM);SN(PPM);SB(PPM): altern. values or methods;;;;TE(PPM);CS(PPM): altern. values or methods;;;;BA(PPM): altern. values or methods;;;;LA(PPM): altern. values or methods;;;;CE(PPM): altern. values or methods;;;;PR(PPM);ND(PPM): altern. values or methods;;;;;;SM(PPM): altern. values or methods;;;;EU(PPM): altern. values or methods;;;;GD(PPM): altern. values or methods;;;;TB(PPM): altern. values or methods;;;;DY(PPM): altern. values or methods;;;;HO(PPM);ER(PPM): altern. values or methods;;;;TM(PPM);YB(PPM): altern. values or methods;;;;LU(PPM);HF(PPM);TA(PPM);W(PPM);RE(PPM);AU(PPM);HG(PPM);HG(PPB);TL(PPM);PB(PPM): altern. values or methods;;;;BI(PPM);PO210_ACT(DPM/G);RA226_ACT(DPM/G);TH(PPM): altern. values or methods;;;;U(PPM): altern. values or methods;;;;ND143_ND144;ND143_ND144_INI;EPSILON_ND;EPSILON_ND_INI;SM147_ND144;SR87_SR86;SR87_SR86_INI;EPSILON_SR_INI;RB87_SR86;PB206_PB204: altern. values or methods;;;;PB206_PB204_INI;PB207_PB204: altern. values or methods;;;;PB207_PB204_INI;PB207_PB206;PB208_PB204: altern. values or methods;;;;PB208_PB204_INI;PB208_PB206;HF176_HF177;LU176_HF177;AR38_AR36;AR40_AR36;AR40_AR36_INI;PB206_U238;PB207_U235;RA226_TH230_ACT;PA231_U235_ACT;TH230_TH232_ACT;TH230_U238_ACT;TH232_PB204;U234_U238_ACT;U235_PB204;U238_PB204;U238_TH232_ACT;D7LI(VS LSVEC);D13C(VS PDB);D18O(PER MIL);D18O(VS SMOW);D18O(VS VSMOW);D34S(VS VCDT);ALBITE(MOL%);ANORTHITE(MOL%);CA OLIVINE(MOL%);CHROMITE(MOL%);ENSTATITE(MOL%);FAYALITE(MOL%);FORSTERITE(MOL%);FERROSILITE(MOL%);HEMATITE(MOL%);HERCYNITE(MOL%);ILMENITE(MOL%);MAGNESIOFERRITE(MOL%);MONTICELLITE(MOL%);MAGNETITE(MOL%);ORTHOCLASE(MOL%);PICROCHROMITE(MOL%);SPINEL(MOL%);TEPHROITE(MOL%);ULVOSPINEL(MOL%);WOLLASTONITE(MOL%);AGE(KA): altern. values or methods;;;;;;AGE(MA): altern. values or methods;;;;;;AGE_PB207_U235(MA);AGE_PB206_U238(MA);
2010;[14572] KAMGANG P. (2010);samp. BA82;;MID-AFRICAN RIFT SYSTEM / CAMEROON LINE (CONTINENTAL SECTION) / CENTRAL CAMEROON LINE / BAMENDA MOUNTAINS;;5.93;10.17;5.93;10.17;;;OUTCROP;;;SUBAERIAL;VOLCANIC ROCK;BENMOREITE;;;;;CENOZOIC;;;;;;;WHOLE ROCK;;;;;;;;;;59.45;0.78;;;;14.67;;;;;;;;8.39;;;;;2.23;0.44;0.38;;;;;;4.36;ICPAES;;;4.96;0.21;;;;;;;;;;;;3.43;;;;;;;;;;;;;;;;;;;;;;;;;8.8;ICPMS;;;;0.24;ICPMS;;;5.27;ICPMS;;;0.34;ICPMS;;;2.4;ICPMS;;;;;;;;;;;29.4;ICPMS;;;;;;;75;ICPMS;;;;;104;ICPMS;;;;;46;ICPMS;;;465;ICPMS;;;91;ICPMS;;;;;;;;;;;;;0.64;ICPMS;;;4013;ICPMS;;;86;ICPMS;;;176;ICPMS;;;21;83;ICPMS;;;;;15.7;ICPMS;;;6.59;ICPMS;;;12.41;ICPMS;;;1.72;ICPMS;;;9.69;ICPMS;;;1.95;4.35;ICPMS;;;0.65;4.1;ICPMS;;;0.62;10.8;6.58;;;;;;;;;;;;;;9;ICPMS;;;;;;;;;;;;;;;;;;;;;;;;;;;;;;;;;;;;;;;;;;;;;;;;;;;;;;;;;;;;;;;;;;;;;;;;;;;;;;;;;;;;;;;;;
2010;[14572] KAMGANG P. (2010);samp. BA75;;MID-AFRICAN RIFT SYSTEM / CAMEROON LINE (CONTINENTAL SECTION) / CENTRAL CAMEROON LINE / BAMENDA MOUNTAINS;;5.93;10.17;5.93;10.17;;;OUTCROP;;;SUBAERIAL;VOLCANIC ROCK;BENMOREITE;;;;;CENOZOIC;;;;;;;MINERAL / COMPONENT (INCL. GROUNDMASS);CLINOPYROXENE;;;;PRIMARY;;;;;48.06;0.64;;;;1.49;0;;;;;;;;;23.14;;;20.71;4.38;1;;;;;;0.07;EMP (EPMA);;;0.56;;;;;;;;;;;;;;;;;;;;;;;;;;;;;;;;;;;;;;;;;;;;;;;;;;;;;;;;;;;;;;;;;;;;;;;;;;;;;;;;;;;;;;;;;;;;;;;;;;;;;;;;;;;;;;;;;;;;;;;;;;;;;;;;;;;;;;;;;;;;;;;;;;;;;;;;;;;;;;;;;;;;;;;;;;;;;;;;;;;;;;;;;;;;;;;;;;;;;;;;;;;;;;;;;;;;;;;;;;;;;;;;;;;;;;;;;;;;;;13.35;;;41.29;;;;;;;;;;;;45.36;;;;;;;;;;;;;;;
2010;[14572] KAMGANG P. (2010);samp. BA75;;MID-AFRICAN RIFT SYSTEM / CAMEROON LINE (CONTINENTAL SECTION) / CENTRAL CAMEROON LINE / BAMENDA MOUNTAINS;;5.93;10.17;5.93;10.17;;;OUTCROP;;;SUBAERIAL;VOLCANIC ROCK;BENMOREITE;;;;;CENOZOIC;;;;;;;MINERAL / COMPONENT (INCL. GROUNDMASS);CLINOPYROXENE;;;;PRIMARY;;;;;48.9;0.49;;;;1.22;0.02;;;;;;;;;23.1;;;20.51;4.28;0.94;;;;;;0.04;EMP (EPMA);;;0.41;;;;;;;;;;;;;;;;;;;;;;;;;;;;;;;;;;;;;;;;;;;;;;;;;;;;;;;;;;;;;;;;;;;;;;;;;;;;;;;;;;;;;;;;;;;;;;;;;;;;;;;;;;;;;;;;;;;;;;;;;;;;;;;;;;;;;;;;;;;;;;;;;;;;;;;;;;;;;;;;;;;;;;;;;;;;;;;;;;;;;;;;;;;;;;;;;;;;;;;;;;;;;;;;;;;;;;;;;;;;;;;;;;;;;;;;;;;;;;13.16;;;41.5;;;;;;;;;;;;45.34;;;;;;;;;;;;;;;
2010;[14572] KAMGANG P. (2010);samp. BA75;;MID-AFRICAN RIFT SYSTEM / CAMEROON LINE (CONTINENTAL SECTION) / CENTRAL CAMEROON LINE / BAMENDA MOUNTAINS;;5.93;10.17;5.93;10.17;;;OUTCROP;;;SUBAERIAL;VOLCANIC ROCK;BENMOREITE;;;;;CENOZOIC;;;;;;;MINERAL / COMPONENT (INCL. GROUNDMASS);CLINOPYROXENE;;;;PRIMARY;;;;;47.63;0.75;;;;0.52;0;;;;;;;;;28;;;19.52;0.91;1.29;;;;;;0;EMP (EPMA);;;0.77;;;;;;;;;;;;;;;;;;;;;;;;;;;;;;;;;;;;;;;;;;;;;;;;;;;;;;;;;;;;;;;;;;;;;;;;;;;;;;;;;;;;;;;;;;;;;;;;;;;;;;;;;;;;;;;;;;;;;;;;;;;;;;;;;;;;;;;;;;;;;;;;;;;;;;;;;;;;;;;;;;;;;;;;;;;;;;;;;;;;;;;;;;;;;;;;;;;;;;;;;;;;;;;;;;;;;;;;;;;;;;;;;;;;;;;;;;;;;;2.9;;;52.39;;;;;;;;;;;;44.71;;;;;;;;;;;;;;;
2010;[14572] KAMGANG P. (2010);samp. BA75;;MID-AFRICAN RIFT SYSTEM / CAMEROON LINE (CONTINENTAL SECTION) / CENTRAL CAMEROON LINE / BAMENDA MOUNTAINS;;5.93;10.17;5.93;10.17;;;OUTCROP;;;SUBAERIAL;VOLCANIC ROCK;BENMOREITE;;;;;CENOZOIC;;;;;;;MINERAL / COMPONENT (INCL. GROUNDMASS);TITANO-MAGNETITE;;;;PRIMARY;;;;;0.05;19.45;;;;0.37;0;;;;;;;;29.88;;47.62;;0;0.02;1.11;;;0.01;;;0;EMP (EPMA);;;0;;;;;;;;;;;;;;;;;;;;;;;;;;;;;;;;;;;;;;;;;;;;;;;;;;;;;;;;;;;;;;;;;;;;;;;;;;;;;;;;;;;;;;;;;;;;;;;;;;;;;;;;;;;;;;;;;;;;;;;;;;;;;;;;;;;;;;;;;;;;;;;;;;;;;;;;;;;;;;;;;;;;;;;;;;;;;;;;;;;;;;;;;;;;;;;;;;;;;;;;;;;;;;;;;;;;;;;;;;;;;;;;;;;;;;;;;;;;;;;;;;;0.65;;;;33.57;;;;;65.78;;;;;;;;;;;;;;;;
2010;[14572] KAMGANG P. (2010);samp. BA75;;MID-AFRICAN RIFT SYSTEM / CAMEROON LINE (CONTINENTAL SECTION) / CENTRAL CAMEROON LINE / BAMENDA MOUNTAINS;;5.93;10.17;5.93;10.17;;;OUTCROP;;;SUBAERIAL;VOLCANIC ROCK;BENMOREITE;;;;;CENOZOIC;;;;;;;MINERAL / COMPONENT (INCL. GROUNDMASS);TITANO-MAGNETITE;;;;PRIMARY;;;;;0.04;18.57;;;;1.08;0.06;;;;;;;;32.17;;46.84;;0.03;0.1;1.38;;;0;;;0;EMP (EPMA);;;0.05;;;;;;;;;;;;;;;;;;;;;;;;;;;;;;;;;;;;;;;;;;;;;;;;;;;;;;;;;;;;;;;;;;;;;;;;;;;;;;;;;;;;;;;;;;;;;;;;;;;;;;;;;;;;;;;;;;;;;;;;;;;;;;;;;;;;;;;;;;;;;;;;;;;;;;;;;;;;;;;;;;;;;;;;;;;;;;;;;;;;;;;;;;;;;;;;;;;;;;;;;;;;;;;;;;;;;;;;;;;;;;;;;;;;;;;;;;;;;;;;;;;1.97;;;;35.36;;;;;62.67;;;;;;;;;;;;;;;;
2010;[14572] KAMGANG P. (2010);samp. BA75;;MID-AFRICAN RIFT SYSTEM / CAMEROON LINE (CONTINENTAL SECTION) / CENTRAL CAMEROON LINE / BAMENDA MOUNTAINS;;5.93;10.17;5.93;10.17;;;OUTCROP;;;SUBAERIAL;VOLCANIC ROCK;BENMOREITE;;;;;CENOZOIC;;;;;;;MINERAL / COMPONENT (INCL. GROUNDMASS);TITANO-MAGNETITE;;;;PRIMARY;;;;;0.11;18.72;;;;0.85;0.02;;;;;;;;32.24;;48.09;;0.07;0;0.82;;;0.02;;;0;EMP (EPMA);;;0;;;;;;;;;;;;;;;;;;;;;;;;;;;;;;;;;;;;;;;;;;;;;;;;;;;;;;;;;;;;;;;;;;;;;;;;;;;;;;;;;;;;;;;;;;;;;;;;;;;;;;;;;;;;;;;;;;;;;;;;;;;;;;;;;;;;;;;;;;;;;;;;;;;;;;;;;;;;;;;;;;;;;;;;;;;;;;;;;;;;;;;;;;;;;;;;;;;;;;;;;;;;;;;;;;;;;;;;;;;;;;;;;;;;;;;;;;;;;;;;;;;1.5;;;;35.74;;;;;62.76;;;;;;;;;;;;;;;;
2010;[14572] KAMGANG P. (2010);samp. BA75;;MID-AFRICAN RIFT SYSTEM / CAMEROON LINE (CONTINENTAL SECTION) / CENTRAL CAMEROON LINE / BAMENDA MOUNTAINS;;5.93;10.17;5.93;10.17;;;OUTCROP;;;SUBAERIAL;VOLCANIC ROCK;BENMOREITE;;;;;CENOZOIC;;;;;;;MINERAL / COMPONENT (INCL. GROUNDMASS);FELDSPAR;;MICROCRYST;;PRIMARY;;;;;66.28;0;;;;19.82;;;;;;;;;;0.59;;;1.22;0.01;0;;;;;;4.82;EMP (EPMA);;;7.5;;;;;;;;;;;;;;;;;;;;;;;;;;;;;;;;;;;;;;;;;;;;;;;;;;;;;;;;;;;;;;;;;;;;;;;;;;;;;;;;;;;;;;;;;;;;;;;;;;;;;;;;;;;;;;;;;;;;;;;;;;;;;;;;;;;;;;;;;;;;;;;;;;;;;;;;;;;;;;;;;;;;;;;;;;;;;;;;;;;;;;;;;;;;;;;;;;;;;;;;;;;;;;;;;;;;;;;;;;;;;;;;;;;;;;;;;;66.1;5.94;;;;;;;;;;;;;27.95;;;;;;;;;;;;;;;;;;;;
2010;[14572] KAMGANG P. (2010);samp. BA75;;MID-AFRICAN RIFT SYSTEM / CAMEROON LINE (CONTINENTAL SECTION) / CENTRAL CAMEROON LINE / BAMENDA MOUNTAINS;;5.93;10.17;5.93;10.17;;;OUTCROP;;;SUBAERIAL;VOLCANIC ROCK;BENMOREITE;;;;;CENOZOIC;;;;;;;MINERAL / COMPONENT (INCL. GROUNDMASS);FELDSPAR;;MICROCRYST;;PRIMARY;;;;;65.98;0;;;;19.74;;;;;;;;;;0.41;;;0.97;0;0;;;;;;6.07;EMP (EPMA);;;6.86;;;;;;;;;;;;;;;;;;;;;;;;;;;;;;;;;;;;;;;;;;;;;;;;;;;;;;;;;;;;;;;;;;;;;;;;;;;;;;;;;;;;;;;;;;;;;;;;;;;;;;;;;;;;;;;;;;;;;;;;;;;;;;;;;;;;;;;;;;;;;;;;;;;;;;;;;;;;;;;;;;;;;;;;;;;;;;;;;;;;;;;;;;;;;;;;;;;;;;;;;;;;;;;;;;;;;;;;;;;;;;;;;;;;;;;;;;60.23;4.71;;;;;;;;;;;;;35.07;;;;;;;;;;;;;;;;;;;;
2005;[14933] DE BENI E. (2005);samp. CG;;ETNA/SICILY / VALLE DEL BOVE VOLCANIC SUCCESSION;CAVA GRANDE, VALLE DE BOVE NORTHERN WALL;37.7464;15.0792;37.7464;15.0792;1368;1368;OUTCROP;;;SUBAERIAL;VOLCANIC ROCK;BENMOREITE;FLUIDAL;;;;HOLOCENE;;;;;;;MINERAL / COMPONENT (INCL. GROUNDMASS);GROUNDMASS;;;;PRIMARY;;;;;;;;;;;;;;;;;;;;;;;;;;;;;;;;;;;;;;;;;;;;;;;;;;;;;;;;;;;;;;;;;;;;;;;;;;;;;;;;;;;;;;;;;;;;;;;;;;;;;;;;;;;;;;;;;;;;;;;;;;;;;;;;;;;;;;;;;;;;;;;;;;;;;;;;;;;;;;;;;;;;;;;;;;;;;;;;;;;;;;;;;;;;;;;;;;;;;;;;;;;;;;;;;;;;;;;;;;;;;;;;;;;;;;;;;;;;;;;;;;;;;;;;;;;;;;;;;;;;;;;;;;;;;;;;;;;;;;;;;;;;;;;;;;;;;;;99;AR-AR;61.5;AR-AR;;;;;
2011;[15510] THORARINSSON S. B. (2011);samp. 122135;302092;HIGH ARCTIC LARGE IGNEOUS PROVINCE / NORTH GREENLAND / KAP WASHINGTON GROUP;KAP KANE;83.43;-39.92;83.43;-39.92;;;OUTCROP;;;SUBAERIAL;VOLCANIC ROCK;BENMOREITE;;TUFF;61000000;71000000;PHANEROZOIC;;;;;;;WHOLE ROCK;;;;;;;;;;57.1821729763004;1.8201764645532;;;;16.3406853390787;;;;;;;;8.46688827331487;;;;;5.11285523750898;2.83252180157997;0.153385657125269;;;;;;2.58710475017954;XRF;;;4.71;0.511285523750898;;;;;;;;;;;;2.2;;;;;;;;;;;;;;;;;;;;;;;;;;;;;;;;;;;;;;;;;;;;;;;;;;;;;;;;;;;;;;63.7;XRF;;;;;700.1;XRF;;;;;22.6;XRF;;;226.9;XRF;;;73.2;XRF;;;;;;;;;;;;;;;;;;;;;;;;;;;;;;;;;;;;;;;;;;;;;;;;;;;;;;;;;;;;;;;;;;;;;;;;;;;;;;;;;;;;;;;;;;;;;;;;;;;;;;;;;;;;;;;;;;;;;;;;;;;;;;;;;;;;;;;;;;;;;;;;;;;;;;;;;;;;;;;;;;;;;;;;;;;;
2011;[15510] THORARINSSON S. B. (2011);samp. 122136;;HIGH ARCTIC LARGE IGNEOUS PROVINCE / NORTH GREENLAND / KAP WASHINGTON GROUP;KAP KANE;83.43;-39.92;83.43;-39.92;;;OUTCROP;;;SUBAERIAL;VOLCANIC ROCK;BENMOREITE;;TUFF;61000000;71000000;PHANEROZOIC;;;;;;;WHOLE ROCK;;;;;;;;;;57.0856291839037;2.24136893569011;;;;16.3426359533659;;;;;;;;9.05818691237307;;;;;3.88979390748402;2.6865863106431;0.168102670176758;;;;;;1.39983678074464;XRF;;;6.71391876645355;0.6469405791651;;;;;;;;;;;;1.85;;;;;;;;;;;;;;;;;;;;;;;;;13.4814152770883;XRF;;;;165.731052168036;XRF;;;12.397704822182;XRF;;;23.6220351888536;XRF;;;8.86928810207134;XRF;;;20.1015265593677;XRF;;;92.2642188698426;XRF;;;17.4664982672266;XRF;;;;;;;26.2484619157719;XRF;;;;;412.805676968223;XRF;;;;;21.5920751293281;XRF;;;171.371902392497;XRF;;;60.8197916444347;XRF;;;;;;;;;;;;;;;;;494.260308410479;XRF;;;52.1055933093221;XRF;;;86.6813384505776;XRF;;;;31.6799242234042;XRF;;;;;;;;;;;;;;;;;;;;;;;;;;;;;;;;;;;;;;;;;;;;8.55635902016148;XRF;;;;;;10.7833594835809;XRF;;;;;;;;;;;;;;;;;;;;;;;;;;;;;;;;;;;;;;;;;;;;;;;;;;;;;;;;;;;;;;;;;;;;;;;;;;;;;;;;;;;;;;;;;
2011;[15510] THORARINSSON S. B. (2011);samp. 122138;;HIGH ARCTIC LARGE IGNEOUS PROVINCE / NORTH GREENLAND / KAP WASHINGTON GROUP;KAP KANE;83.43;-39.92;83.43;-39.92;;;OUTCROP;;;SUBAERIAL;VOLCANIC ROCK;BENMOREITE;;TUFF;61000000;71000000;PHANEROZOIC;;;;;;;WHOLE ROCK;;;;;;;;;;60.247495407226;1.49550520514391;;;;16.0843110838947;;;;;;;;7.35544396815677;;;;;3.95749336599306;2.278865074505;0.162776076750357;;;;;;2.70615227597469;XRF;;;4.98501735047969;0.427287201469688;;;;;;;;;;;;1.7;;;;;;;;;;;;;;;;;;;;;;;;;9;ICPMS;;;;114;ICPMS;;;0;ICPMS;;;19.1;ICPMS;;;7;ICPMS;;;23.3;ICPMS;;;72;ICPMS;;;16.7;ICPMS;;;;;;;75.9;XRF;75.9;ICPMS;;;665.8;XRF;665.8;ICPMS;;;20.5;XRF;20.5;ICPMS;223.9;XRF;223.9;ICPMS;74.2;XRF;74.2;ICPMS;;;;;;;;;;;1.9;ICPMS;;;1028;ICPMS;;;56.2;ICPMS;;;103.1;ICPMS;;;11.3;40.7;ICPMS;;;;;6.37;ICPMS;;;1.85;ICPMS;;;5.22;ICPMS;;;0.77;ICPMS;;;4.03;ICPMS;;;0.73;2.14;ICPMS;;;0.31;1.9;ICPMS;;;0.3;5.7;4.6;;;;;;;4.2;ICPMS;;;;;;16.5;ICPMS;;;3.7;ICPMS;;;;;;;;;;;;;;;;;;;;;;;;;;;;;;;;;;;;;;;;;;;;;;;;;;;;;;;;;;;;;;;;;;;;;;;;;;;;;;;;;;;;;
2011;[15510] THORARINSSON S. B. (2011);samp. 122141JP;;HIGH ARCTIC LARGE IGNEOUS PROVINCE / NORTH GREENLAND / KAP WASHINGTON GROUP;KAP KANE;83.43;-39.92;83.43;-39.92;;;OUTCROP;;;SUBAERIAL;VOLCANIC ROCK;BENMOREITE;;LAVA;61000000;71000000;PHANEROZOIC;;;;;;;WHOLE ROCK;;;;;;;;;;56.9658983818902;2.27916361340516;;;;16.8400356921009;;;;;;;;9.98022000794289;;;;;3.29392924715634;1.93211376666225;0.113653750980133;;;;;;1.56882766977933;XRF;;;6.1697750532072;0.507382816875592;;;;;;;;;;;;1.45;;;;;;;;;;;;;;;;;;;;;;;;;26.2268132287045;XRF;27.5884551013231;ICPMS;;175.617497152935;XRF;180.757477694499;ICPMS;242.4755649621;XRF;226.259147340075;ICPMS;34.5306238404484;XRF;29.0459857426456;ICPMS;76.5039258632865;XRF;78.1054796108725;ICPMS;42.4641299853219;XRF;77.8172949821244;ICPMS;155.346004168923;XRF;137.617325846136;ICPMS;16.7352127635208;XRF;17.3547185207859;ICPMS;;;;;65;TIMS_ID;62.5858592103243;XRF;65.1966906968668;ICPMS;473;TIMS_ID;459.372056640967;XRF;472.727815064722;ICPMS;25.2723383716938;XRF;25.3722692375908;ICPMS;207.311665758712;XRF;212.517345836305;ICPMS;77.1935367423618;XRF;79.8327709711271;ICPMS;;;;;;;;;;;4.81560009104038;ICPMS;;;684.403655511938;XRF;734.703771556314;ICPMS;49.0115649833468;XRF;52.9463744506157;ICPMS;86.9098227035134;XRF;94.5564892109247;ICPMS;11.3463675124472;40.1;TIMS_ID;34.0887057848894;XRF;40.0769012213918;ICPMS;7.2;TIMS_ID;7.2012868891983;ICPMS;3.12825912900691;ICPMS;;;6.08821646428954;ICPMS;;;0.912747713738224;ICPMS;;;4.70509420444053;ICPMS;;;0.887776461151198;2.27543068617557;ICPMS;;;0.329924840312403;1.92407176714166;ICPMS;;;0.281059728382704;4.48490337474592;3.88990761841324;;;;;;;4.32052951926335;XRF;4.50693712415382;ICPMS;;;;7.94462014053711;XRF;7.68980619730293;ICPMS;6.10373830300926;ICPMS;;;;;;;;0.70475;;;0.47;;;;;;;;;;;;;;;;;;;;;;;;;;;;;;;;;;;;;;;;;;;;;;;;;;;;;;;;;;;;;;;;;;;;;;;;;;
2011;[15510] THORARINSSON S. B. (2011);samp. 122141JP_LEACHED;;HIGH ARCTIC LARGE IGNEOUS PROVINCE / NORTH GREENLAND / KAP WASHINGTON GROUP;KAP KANE;83.43;-39.92;83.43;-39.92;;;OUTCROP;;;SUBAERIAL;VOLCANIC ROCK;BENMOREITE;;LAVA;61000000;71000000;PHANEROZOIC;;;;;;;WHOLE ROCK;;;;;;;;;;;;;;;;;;;;;;;;;;;;;;;;;;;;;;;;;;;;;;;;;;;;;;;;;;;;;;;;;;;;;;;;;;;;;;27.536603874654;ICPMS;;;;172.477266060428;ICPMS;;;208.791853497046;ICPMS;;;21.1026694045175;ICPMS;;;51.4473074120686;ICPMS;;;42.7084188911704;ICPMS;;;124.610882956879;ICPMS;;;18.9845995893224;ICPMS;;;;;;;90;TIMS_ID;90.2860511923882;ICPMS;;;550;TIMS_ID;550.32135523614;ICPMS;;;21.3755312544769;ICPMS;;;246.28316014353;ICPMS;;;93.2892569442877;ICPMS;;;;;;;;;;;;;5.70020533880903;ICPMS;;;1066.14749442964;ICPMS;;;40.6860994554058;ICPMS;;;71.8162217659138;ICPMS;;;8.64523053948105;30.9;TIMS_ID;30.9045829874612;ICPMS;;;5.8;TIMS_ID;5.80082135523614;ICPMS;2.9752282755909;ICPMS;;;4.97692479720251;ICPMS;;;0.737058251377931;ICPMS;;;3.89096090181452;ICPMS;;;0.755190508783938;1.9345077272236;ICPMS;;;0.290100759276061;1.81724845995893;ICPMS;;;0.284674257980213;5.20996899786609;4.73819301848049;;;;;;;6;TIMS_ID;5.76287831443621;ICPMS;;;;7;TIMS_ID;6.55930600096901;ICPMS;6;TIMS_ID;5.84880814213017;ICPMS;;;;;;0.70476;;;0.47;19.128;TIMS;;;;15.554;TIMS;;;;;38.817;TIMS;;;;;;;;;;;;;;;;75.7;;0.47;65;;;;;;;;;;;;;;;;;;;;;;;;;;;;;;;;;;;;;;;;;;
2011;[15510] THORARINSSON S. B. (2011);samp. 122141JP;;HIGH ARCTIC LARGE IGNEOUS PROVINCE / NORTH GREENLAND / KAP WASHINGTON GROUP;KAP KANE;83.43;-39.92;83.43;-39.92;;;OUTCROP;;;SUBAERIAL;VOLCANIC ROCK;BENMOREITE;;LAVA;61000000;71000000;PHANEROZOIC;;;;;;;MINERAL / COMPONENT (INCL. GROUNDMASS);PLAGIOCLASE;;;;PRIMARY;;;;;66.7;0.03;;;;20.1;;;;;;;;;;0.05;;;0.93;;0;0;;;;;0.1;EMP (EPMA);;;11.4;;;;;;;;;;;;;;;;;;;;;;;;;;;;;;;;;;;;;;;;;;;;;;;;;;;;;;;;;;;;;;;;;;;;;;;;;;;;;;;;;;;;;;;;;;;;;;;;;;;;;;;;;;;;;;;;;;;;;;;;;;;;;;;;;;;;;;;;;;;;;;;;;;;;;;;;;;;;;;;;;;;;;;;;;;;;;;;;;;;;;;;;;;;;;;;;;;;;;;;;;;;;;;;;;;;;;;;;;;;;;;;;;;;;;;;;;;95.2;4.26;;;;;;;;;;;;;0.52;;;;;;;;;;;;;;;;;;;;
2011;[15510] THORARINSSON S. B. (2011);samp. 122138;;HIGH ARCTIC LARGE IGNEOUS PROVINCE / NORTH GREENLAND / KAP WASHINGTON GROUP;KAP KANE;83.43;-39.92;83.43;-39.92;;;OUTCROP;;;SUBAERIAL;VOLCANIC ROCK;BENMOREITE;;TUFF;61000000;71000000;PHANEROZOIC;;;;;;;MINERAL / COMPONENT (INCL. GROUNDMASS);CLINOPYROXENE;;;CORE;PRIMARY;;;;;51.8;0.21;;;;0.59;0;;;;;;;;;15.3;;;20.7;10.2;1.04;;;;;;0;EMP (EPMA);;;0.38;;;;;;;;;;;;;;;;;;;;;;;;;;;;;;;;;;;;;;;;;;;;;;;;;;;;;;;;;;;;;;;;;;;;;;;;;;;;;;;;;;;;;;;;;;;;;;;;;;;;;;;;;;;;;;;;;;;;;;;;;;;;;;;;;;;;;;;;;;;;;;;;;;;;;;;;;;;;;;;;;;;;;;;;;;;;;;;;;;;;;;;;;;;;;;;;;;;;;;;;;;;;;;;;;;;;;;;;;;;;;;;;;;;;;;;;;;;;;;;;;;;;;;;;;;;;;;;;;;;;;;;;;;;;
2011;[15510] THORARINSSON S. B. (2011);samp. 122135;302092;HIGH ARCTIC LARGE IGNEOUS PROVINCE / NORTH GREENLAND / KAP WASHINGTON GROUP;KAP KANE;83.43;-39.92;83.43;-39.92;;;OUTCROP;;;SUBAERIAL;VOLCANIC ROCK;BENMOREITE;;TUFF;61000000;71000000;PHANEROZOIC;;;;;;;MINERAL / COMPONENT (INCL. GROUNDMASS);AMPHIBOLE;;;CORE;PRIMARY;;;;;39.8;4.99;;;;13;0.02;;;;;;;;;13.1;;;11.9;11.5;0.24;;;;;;1;EMP (EPMA);;;2.72;;;;;;;;;;;;;;;;;;;;;;;;;;;;;;;;;;;;;;;;;;;;;;;;;;;;;;;;;;;;;;;;;;;;;;;;;;;;;;;;;;;;;;;;;;;;;;;;;;;;;;;;;;;;;;;;;;;;;;;;;;;;;;;;;;;;;;;;;;;;;;;;;;;;;;;;;;;;;;;;;;;;;;;;;;;;;;;;;;;;;;;;;;;;;;;;;;;;;;;;;;;;;;;;;;;;;;;;;;;;;;;;;;;;;;;;;;;;;;;;;;;;;;;;;;;;;;;;;;;;;;;;;;;;
2011;[15668] MADUREIRA P.(2011)  [GeoReM [6330] ];samp. PMT-83;;AZORES / TERCEIRA / SANTA BARBARA;;38.72;-27.22;38.72;-27.22;;;OUTCROP;;;SUBAERIAL;VOLCANIC ROCK;BENMOREITE;;;0;100000;QUATERNARY;;;;;;;WHOLE ROCK;;;;;;;;;;59.56;1.39;;;;16.77;;;;;;;;7.43;;;;;3.93;1.66;0.2;;;;;;2.97;ICPOES;;;5.68;0.43;;;;;;;;;;;;0.29;;;;;;;;;;;;;;;;;;;;;;;;;8;ICPMS;;;;45;ICPMS;;;0;ICPMS;;;5;ICPMS;;;0;ICPMS;;;11;ICPMS;;;121;ICPMS;;;27;ICPMS;;;1.6;;;;56;ICPMS;;;;;498;ICPMS;;;;;53.7;ICPMS;;;499;ICPMS;;;100.5;ICPMS;;;;;;;;;;;;;0;ICPMS;;;627;ICPMS;;;103.8;ICPMS;;;187;ICPMS;;;22.2;82.5;ICPMS;;;;;16.6;ICPMS;;;5.13;ICPMS;;;14.7;ICPMS;;;2.31;ICPMS;;;11.9;ICPMS;;;2.28;5.84;ICPMS;;;0.813;4.79;ICPMS;;;0.65;12.2;6.25;;;;;;;0;ICPMS;;;;;;8.53;ICPMS;;;2.1;ICPMS;;;;;;;;;;;;;;;;;;;;;;;;;;;;;;;;;;;;;;;;;;;;;;;;;;;;;;;;;;;;;;;;;;;;;;;;;;;;;;;;;;;;;
2011;[15668] MADUREIRA P.(2011)  [GeoReM [6330] ];samp. PMT-83;;AZORES / TERCEIRA / SANTA BARBARA;;38.72;-27.22;38.72;-27.22;;;OUTCROP;;;SUBAERIAL;VOLCANIC ROCK;BENMOREITE;;;0;100000;QUATERNARY;;;;;;;MINERAL / COMPONENT (INCL. GROUNDMASS);OLIVINE;;PHENOCRYST;RIM;PRIMARY;;;;;35.76;0.02;;;;0.02;;;;;;;;;;36.51;;;0.21;25.49;1.11;;;0;;;;;;;;;;;;;;;;;;;;;;;;;;;;;;;;;;;;;;;;;;;;;;;;;;;;;;;;;;;;;;;;;;;;;;;;;;;;;;;;;;;;;;;;;;;;;;;;;;;;;;;;;;;;;;;;;;;;;;;;;;;;;;;;;;;;;;;;;;;;;;;;;;;;;;;;;;;;;;;;;;;;;;;;;;;;;;;;;;;;;;;;;;;;;;;;;;;;;;;;;;;;;;;;;;;;;;;;;;;;;;;;;;;;;;;;;;;;;;;;;;;;;;44.6;55.4;;;;;;;;;;;;;;;;;;;;;;;;;;;;