Year;CITATION;SAMPLE NAME;UNIQUE_ID;LOCATION;LOCATION COMMENT;LATITUDE (MIN.);LONGITUDE (MIN.);LATITUDE (MAX.);LONGITUDE (MAX.);ELEVATION (MIN.);ELEVATION (MAX.);SAMPLING TECHNIQUE;DRILLING DEPTH (MIN.);DRILLING DEPTH (MAX.);LAND/SEA (SAMPLING);ROCK TYPE;ROCK NAME;ROCK TEXTURE;SAMPLE COMMENT;AGE (MIN.);AGE (MAX.);GEOLOGICAL AGE;GEOLOGICAL AGE PREFIX;ERUPTION DAY;ERUPTION MONTH;ERUPTION YEAR;ALTERATION;ALTERATION TYPE;TYPE OF MATERIAL;MINERAL / COMPONENT;SPOT (MINERAL);CRYSTAL;RIM / CORE (MINERAL GRAINS);PRIMARY/SECONDARY;INCLUSION TYPE;MINERAL (INCLUSION);HOSTMINERAL (INCLUSION);HEATING;SIO2(WT%);TIO2(WT%);ZRO2(WT%);HFO2(WT%);THO2(WT%);AL2O3(WT%);CR2O3(WT%);LA2O3(WT%);CE2O3(WT%);ND2O3(WT%);SM2O3(WT%);V2O3(WT%);NB2O5(WT%);FE2O3T(WT%);FE2O3(WT%);FEOT(WT%);FEO(WT%);FET(WT%);CAO(WT%);MGO(WT%);MNO(WT%);BAO(WT%);SRO(WT%);NIO(WT%);ZNO(WT%);RB2O(WT%);K2O(WT%);;;;NA2O(WT%);P2O5(WT%);AS2O5(WT%);H2O(WT%);H2OP(WT%);H2OM(WT%);CO2(WT%);C(WT%);F(WT%);CL(WT%);OH(WT%);SO3(WT%);S(WT%);LOI(WT%);TI(WT%);CA(WT%);K(WT%);LI(PPM);BE(PPM);B(PPM);F(PPM);P(PPM);S(PPM);CL(PPM);AR40(AT/G);;;;AR40(CCMSTP/G);;;;AR40(MOL/G);;;;AR40(PPB);K(PPM);SC(PPM);;;;TI(PPM);V(PPM);;;;CR(PPM);;;;CO(PPM);;;;NI(PPM);;;;CU(PPM);;;;ZN(PPM);;;;GA(PPM);;;;GE(PPM);AS(PPM);AS(PPB);SE(PPM);RB(PPM);;;;;;SR(PPM);;;;;;Y(PPM);;;;ZR(PPM);;;;NB(PPM);;;;MO(PPM);AG(PPM);CD(PPM);IN(PPM);SN(PPM);SB(PPM): altern. values or methods;;;;TE(PPM);CS(PPM): altern. values or methods;;;;BA(PPM): altern. values or methods;;;;LA(PPM): altern. values or methods;;;;CE(PPM): altern. values or methods;;;;PR(PPM);ND(PPM): altern. values or methods;;;;;;SM(PPM): altern. values or methods;;;;EU(PPM): altern. values or methods;;;;GD(PPM): altern. values or methods;;;;TB(PPM): altern. values or methods;;;;DY(PPM): altern. values or methods;;;;HO(PPM);ER(PPM): altern. values or methods;;;;TM(PPM);YB(PPM): altern. values or methods;;;;LU(PPM);HF(PPM);TA(PPM);W(PPM);RE(PPM);AU(PPM);HG(PPM);HG(PPB);TL(PPM);PB(PPM): altern. values or methods;;;;BI(PPM);PO210_ACT(DPM/G);RA226_ACT(DPM/G);TH(PPM): altern. values or methods;;;;U(PPM): altern. values or methods;;;;ND143_ND144;ND143_ND144_INI;EPSILON_ND;EPSILON_ND_INI;SM147_ND144;SR87_SR86;SR87_SR86_INI;EPSILON_SR_INI;RB87_SR86;PB206_PB204: altern. values or methods;;;;PB206_PB204_INI;PB207_PB204: altern. values or methods;;;;PB207_PB204_INI;PB207_PB206;PB208_PB204: altern. values or methods;;;;PB208_PB204_INI;PB208_PB206;HF176_HF177;LU176_HF177;AR38_AR36;AR40_AR36;AR40_AR36_INI;PB206_U238;PB207_U235;RA226_TH230_ACT;PA231_U235_ACT;TH230_TH232_ACT;TH230_U238_ACT;TH232_PB204;U234_U238_ACT;U235_PB204;U238_PB204;U238_TH232_ACT;D7LI(VS LSVEC);D13C(VS PDB);D18O(PER MIL);D18O(VS SMOW);D18O(VS VSMOW);D34S(VS VCDT);ALBITE(MOL%);ANORTHITE(MOL%);CA OLIVINE(MOL%);CHROMITE(MOL%);ENSTATITE(MOL%);FAYALITE(MOL%);FORSTERITE(MOL%);FERROSILITE(MOL%);HEMATITE(MOL%);HERCYNITE(MOL%);ILMENITE(MOL%);MAGNESIOFERRITE(MOL%);MONTICELLITE(MOL%);MAGNETITE(MOL%);ORTHOCLASE(MOL%);PICROCHROMITE(MOL%);SPINEL(MOL%);TEPHROITE(MOL%);ULVOSPINEL(MOL%);WOLLASTONITE(MOL%);AGE(KA): altern. values or methods;;;;;;AGE(MA): altern. values or methods;;;;;;AGE_PB207_U235(MA);AGE_PB206_U238(MA);
2012;[15775] CUBUKCU H. E. (2012);samp. N-011;;ANATOLIA-IRAN BELT / TURKEY / EASTERN ANATOLIAN VOLCANIC BELT / NEMRUT / POST-CALDERA STAGE;;38.67;42.2;38.67;42.2;;;OUTCROP;;;SUBAERIAL;VOLCANIC ROCK;BENMOREITE;;;;;QUATERNARY;;;;;;;MINERAL / COMPONENT (INCL. GROUNDMASS);OLIVINE;;;CORE;PRIMARY;;;;;38.44;0.06;;;;0;;;;;;;;;;22.41;;;0.29;39.11;0.37;;;;;;;;;;;;;;;;;;;;;;;;;;;;;;;;;;;;;;;;;;;;;;;;;;;;;;;;;;;;;;;;;;;;;;;;;;;;;;;;;;;;;;;;;;;;;;;;;;;;;;;;;;;;;;;;;;;;;;;;;;;;;;;;;;;;;;;;;;;;;;;;;;;;;;;;;;;;;;;;;;;;;;;;;;;;;;;;;;;;;;;;;;;;;;;;;;;;;;;;;;;;;;;;;;;;;;;;;;;;;;;;;;;;;;;;;;;;;;;;;;;;;;;;;24.23;75.37;;;;;;;;;;;0.4;;;;;;;;;;;;;;;;;
2012;[15775] CUBUKCU H. E. (2012);samp. N-256;;ANATOLIA-IRAN BELT / TURKEY / EASTERN ANATOLIAN VOLCANIC BELT / NEMRUT / POST-CALDERA STAGE;;38.67;42.2;38.67;42.2;;;OUTCROP;;;SUBAERIAL;VOLCANIC ROCK;BENMOREITE;;ENCLAVE;;;QUATERNARY;;;;;;;MINERAL / COMPONENT (INCL. GROUNDMASS);OLIVINE;;;CORE;PRIMARY;;;;;36.32;0.07;;;;0.04;;;;;;;;;;32.49;;;0.23;29.88;0.8;;;;;;;;;;;;;;;;;;;;;;;;;;;;;;;;;;;;;;;;;;;;;;;;;;;;;;;;;;;;;;;;;;;;;;;;;;;;;;;;;;;;;;;;;;;;;;;;;;;;;;;;;;;;;;;;;;;;;;;;;;;;;;;;;;;;;;;;;;;;;;;;;;;;;;;;;;;;;;;;;;;;;;;;;;;;;;;;;;;;;;;;;;;;;;;;;;;;;;;;;;;;;;;;;;;;;;;;;;;;;;;;;;;;;;;;;;;;;;;;;;;;;;;;;37.54;61.52;;;;;;;;;;;0.94;;;;;;;;;;;;;;;;;
2012;[15775] CUBUKCU H. E. (2012);samp. N-011;;ANATOLIA-IRAN BELT / TURKEY / EASTERN ANATOLIAN VOLCANIC BELT / NEMRUT / POST-CALDERA STAGE;;38.67;42.2;38.67;42.2;;;OUTCROP;;;SUBAERIAL;VOLCANIC ROCK;BENMOREITE;;;;;QUATERNARY;;;;;;;MINERAL / COMPONENT (INCL. GROUNDMASS);MAGNETITE;;;CORE;PRIMARY;;;;;;22.45;;;;2.16;;;;;;;;;22.18;;47.61;;;2.35;0.54;;;;;;;;;;;;;;;;;;;;;;;;;;;;;;;;;;;;;;;;;;;;;;;;;;;;;;;;;;;;;;;;;;;;;;;;;;;;;;;;;;;;;;;;;;;;;;;;;;;;;;;;;;;;;;;;;;;;;;;;;;;;;;;;;;;;;;;;;;;;;;;;;;;;;;;;;;;;;;;;;;;;;;;;;;;;;;;;;;;;;;;;;;;;;;;;;;;;;;;;;;;;;;;;;;;;;;;;;;;;;;;;;;;;;;;;;;;;;;;;;;;;;;;;;;;;;;;;;;;;;;63.13;;;;;;;;;;;;;;;;
2012;[15775] CUBUKCU H. E. (2012);samp. N-256;;ANATOLIA-IRAN BELT / TURKEY / EASTERN ANATOLIAN VOLCANIC BELT / NEMRUT / POST-CALDERA STAGE;;38.67;42.2;38.67;42.2;;;OUTCROP;;;SUBAERIAL;VOLCANIC ROCK;BENMOREITE;;ENCLAVE;;;QUATERNARY;;;;;;;MINERAL / COMPONENT (INCL. GROUNDMASS);MAGNETITE;;;CORE;PRIMARY;;;;;;1.39;;;;0.53;;;;;;;;;58.72;;31.5;;;1.27;0.16;;;;;;;;;;;;;;;;;;;;;;;;;;;;;;;;;;;;;;;;;;;;;;;;;;;;;;;;;;;;;;;;;;;;;;;;;;;;;;;;;;;;;;;;;;;;;;;;;;;;;;;;;;;;;;;;;;;;;;;;;;;;;;;;;;;;;;;;;;;;;;;;;;;;;;;;;;;;;;;;;;;;;;;;;;;;;;;;;;;;;;;;;;;;;;;;;;;;;;;;;;;;;;;;;;;;;;;;;;;;;;;;;;;;;;;;;;;;;;;;;;;;;;;;;;;;;;;;;;;;;;11.87;;;;;;;;;;;;;;;;
2012;[15775] CUBUKCU H. E. (2012);samp. N-256;;ANATOLIA-IRAN BELT / TURKEY / EASTERN ANATOLIAN VOLCANIC BELT / NEMRUT / POST-CALDERA STAGE;;38.67;42.2;38.67;42.2;;;OUTCROP;;;SUBAERIAL;VOLCANIC ROCK;BENMOREITE;;ENCLAVE;;;QUATERNARY;;;;;;;MINERAL / COMPONENT (INCL. GROUNDMASS);AMPHIBOLE;;;CORE;PRIMARY;;;;;40.81;5.11;;;;8.3;;;;;;;;;;18.79;;;10.84;9.53;0.26;;;;;;0.73;EMP (EPMA);;;2.23;;;;;;;;;;;;;;;;;;;;;;;;;;;;;;;;;;;;;;;;;;;;;;;;;;;;;;;;;;;;;;;;;;;;;;;;;;;;;;;;;;;;;;;;;;;;;;;;;;;;;;;;;;;;;;;;;;;;;;;;;;;;;;;;;;;;;;;;;;;;;;;;;;;;;;;;;;;;;;;;;;;;;;;;;;;;;;;;;;;;;;;;;;;;;;;;;;;;;;;;;;;;;;;;;;;;;;;;;;;;;;;;;;;;;;;;;;;;;;;;;;;;;;;;;;;;;;;;;;;;;;;;;;;;
2012;[15775] CUBUKCU H. E. (2012);samp. N-256;;ANATOLIA-IRAN BELT / TURKEY / EASTERN ANATOLIAN VOLCANIC BELT / NEMRUT / POST-CALDERA STAGE;;38.67;42.2;38.67;42.2;;;OUTCROP;;;SUBAERIAL;VOLCANIC ROCK;BENMOREITE;;ENCLAVE;;;QUATERNARY;;;;;;;MINERAL / COMPONENT (INCL. GROUNDMASS);AMPHIBOLE;;;CORE;PRIMARY;;;;;40.74;3.88;;;;8.93;;;;;;;;;;18.05;;;9.63;10.48;0.1;;;;;;0.74;EMP (EPMA);;;2.23;;;;;;;;;;;;;;;;;;;;;;;;;;;;;;;;;;;;;;;;;;;;;;;;;;;;;;;;;;;;;;;;;;;;;;;;;;;;;;;;;;;;;;;;;;;;;;;;;;;;;;;;;;;;;;;;;;;;;;;;;;;;;;;;;;;;;;;;;;;;;;;;;;;;;;;;;;;;;;;;;;;;;;;;;;;;;;;;;;;;;;;;;;;;;;;;;;;;;;;;;;;;;;;;;;;;;;;;;;;;;;;;;;;;;;;;;;;;;;;;;;;;;;;;;;;;;;;;;;;;;;;;;;;;
2012;[15775] CUBUKCU H. E. (2012);samp. N-050;;ANATOLIA-IRAN BELT / TURKEY / EASTERN ANATOLIAN VOLCANIC BELT / NEMRUT / POST-CALDERA STAGE;;38.67;42.2;38.67;42.2;;;OUTCROP;;;SUBAERIAL;VOLCANIC ROCK;BENMOREITE;;ENCLAVE;;;QUATERNARY;;;;;;;MINERAL / COMPONENT (INCL. GROUNDMASS);AMPHIBOLE;;;CORE;PRIMARY;;;;;39.19;3.7;;;;10.4;;;;;;;;;;21.42;;;9.58;7.54;0.52;;;;;;0.8;EMP (EPMA);;;2.63;;;;;;;;;;;;;;;;;;;;;;;;;;;;;;;;;;;;;;;;;;;;;;;;;;;;;;;;;;;;;;;;;;;;;;;;;;;;;;;;;;;;;;;;;;;;;;;;;;;;;;;;;;;;;;;;;;;;;;;;;;;;;;;;;;;;;;;;;;;;;;;;;;;;;;;;;;;;;;;;;;;;;;;;;;;;;;;;;;;;;;;;;;;;;;;;;;;;;;;;;;;;;;;;;;;;;;;;;;;;;;;;;;;;;;;;;;;;;;;;;;;;;;;;;;;;;;;;;;;;;;;;;;;;
2012;[15775] CUBUKCU H. E. (2012);samp. N-050;;ANATOLIA-IRAN BELT / TURKEY / EASTERN ANATOLIAN VOLCANIC BELT / NEMRUT / POST-CALDERA STAGE;;38.67;42.2;38.67;42.2;;;OUTCROP;;;SUBAERIAL;VOLCANIC ROCK;BENMOREITE;;ENCLAVE;;;QUATERNARY;;;;;;;MINERAL / COMPONENT (INCL. GROUNDMASS);AMPHIBOLE;;;CORE;PRIMARY;;;;;43.48;1.46;;;;7.68;;;;;;;;;;19.53;;;14.88;8.15;0.77;;;;;;0.26;EMP (EPMA);;;0.95;;;;;;;;;;;;;;;;;;;;;;;;;;;;;;;;;;;;;;;;;;;;;;;;;;;;;;;;;;;;;;;;;;;;;;;;;;;;;;;;;;;;;;;;;;;;;;;;;;;;;;;;;;;;;;;;;;;;;;;;;;;;;;;;;;;;;;;;;;;;;;;;;;;;;;;;;;;;;;;;;;;;;;;;;;;;;;;;;;;;;;;;;;;;;;;;;;;;;;;;;;;;;;;;;;;;;;;;;;;;;;;;;;;;;;;;;;;;;;;;;;;;;;;;;;;;;;;;;;;;;;;;;;;;
2012;[15775] CUBUKCU H. E. (2012);samp. N-050;;ANATOLIA-IRAN BELT / TURKEY / EASTERN ANATOLIAN VOLCANIC BELT / NEMRUT / POST-CALDERA STAGE;;38.67;42.2;38.67;42.2;;;OUTCROP;;;SUBAERIAL;VOLCANIC ROCK;BENMOREITE;;ENCLAVE;;;QUATERNARY;;;;;;;MINERAL / COMPONENT (INCL. GROUNDMASS);AMPHIBOLE;;;CORE;PRIMARY;;;;;50.67;0.77;;;;6.68;;;;;;;;;;16.22;;;12.37;6.53;0.93;;;;;;1.15;EMP (EPMA);;;0.8;;;;;;;;;;;;;;;;;;;;;;;;;;;;;;;;;;;;;;;;;;;;;;;;;;;;;;;;;;;;;;;;;;;;;;;;;;;;;;;;;;;;;;;;;;;;;;;;;;;;;;;;;;;;;;;;;;;;;;;;;;;;;;;;;;;;;;;;;;;;;;;;;;;;;;;;;;;;;;;;;;;;;;;;;;;;;;;;;;;;;;;;;;;;;;;;;;;;;;;;;;;;;;;;;;;;;;;;;;;;;;;;;;;;;;;;;;;;;;;;;;;;;;;;;;;;;;;;;;;;;;;;;;;;
2012;[15775] CUBUKCU H. E. (2012);samp. N-050;;ANATOLIA-IRAN BELT / TURKEY / EASTERN ANATOLIAN VOLCANIC BELT / NEMRUT / POST-CALDERA STAGE;;38.67;42.2;38.67;42.2;;;OUTCROP;;;SUBAERIAL;VOLCANIC ROCK;BENMOREITE;;ENCLAVE;;;QUATERNARY;;;;;;;MINERAL / COMPONENT (INCL. GROUNDMASS);AMPHIBOLE;;;CORE;PRIMARY;;;;;42.44;1.95;;;;9.42;;;;;;;;;;19.98;;;10.21;9.47;0.63;;;;;;0.67;EMP (EPMA);;;2.34;;;;;;;;;;;;;;;;;;;;;;;;;;;;;;;;;;;;;;;;;;;;;;;;;;;;;;;;;;;;;;;;;;;;;;;;;;;;;;;;;;;;;;;;;;;;;;;;;;;;;;;;;;;;;;;;;;;;;;;;;;;;;;;;;;;;;;;;;;;;;;;;;;;;;;;;;;;;;;;;;;;;;;;;;;;;;;;;;;;;;;;;;;;;;;;;;;;;;;;;;;;;;;;;;;;;;;;;;;;;;;;;;;;;;;;;;;;;;;;;;;;;;;;;;;;;;;;;;;;;;;;;;;;;
2012;[15825] LUSTRINO M. (2012);samp. 3MO 46;;ANATOLIA-IRAN BELT / TURKEY / EASTERN ANATOLIAN VOLCANIC BELT / KARACA(LI)DAG;;37;39;38;40.5;1061;1061;OUTCROP;;;SUBAERIAL;VOLCANIC ROCK;BENMOREITE;AMPH-BEARING LAVAS;KARACADAG;1000000;1900000;NEOGENE;;;;;;;WHOLE ROCK;;;;;;;;;;58.94;1.07;;;;18.17;;;;;;;;7.84;;;;;4.57;2.46;0.18;;;;;;3.25;XRF;;;3;0.52;;;;;;;;;;;;2.02;;;;;;;;;;;;;;;;;;;;;;;;;;;;;;47;CPMS;;;40;CPMS;;;16;CPMS;;;50;CPMS;;;30;CPMS;;;;;;;28;CPMS;;;;;;;33;CPMS;;;;;643;CPMS;;;;;21;CPMS;;;303;CPMS;;;53;CPMS;;;;;;;;;;;;;;;;;506;CPMS;;;41.2;CPMS;;;81.8;CPMS;;;8;28.8;CPMS;;;;;6.4;CPMS;;;2.3;CPMS;;;5.4;CPMS;;;0.8;CPMS;;;4.3;CPMS;;;0.8;2;CPMS;;;0.27;1.6;CPMS;;;0.23;6.7;3;;;;;;;7;CPMS;;;;;;4.4;CPMS;;;1.5;CPMS;;;;;;;;;;;;;;;;;;;;;;;;;;;;;;;;;;;;;;;;;;;;;;;;;;;;;;;;;;;;;;;;;;;;;;;;;;;;;;;;;;;;;
2012;[16042] LE ROEX A. P. (2012);samp. LC-23;250762;MARION ISLANDS / MARION;BASE OF GOODHOPE BAY, WESTERN SHIELD;-46.75;37.75;-46.75;37.75;;;OUTCROP;;;SUBAERIAL;VOLCANIC ROCK;BENMOREITE;APHYRIC;;;;PLEISTOCENE;;;;;FRESH;;WHOLE ROCK;;;;;;;;;;46.288;3.869;;;;15.534;0.031;;;;;;;12.637;;;;;9.77;5.813;0.157;;;0;;;0.874;XRF;;;3.714;0.634;;;;0.11;;;;;;;;-0.476;;;;;;;;;;;;;;;;;;;;;;;;;10.3;ICPMS;;;;271.267;XRF;;;51.594;XRF;;;45.447;XRF;22.1;ICPMS;49.521;XRF;;;42.443;XRF;;;105.933;XRF;;;;;;;;;735;;18.44;XRF;41;ICPMS;;;701.18;XRF;592;ICPMS;;;34.96;XRF;46.5;ICPMS;333.53;XRF;521;ICPMS;47.12;XRF;76.3;ICPMS;;;;;;;;;;;;;;;629;ICPMS;;;59.3;ICPMS;;;132;ICPMS;;;15.3;66.6;ICPMS;;;;;13.1;ICPMS;;;4.13;ICPMS;;;12.2;ICPMS;;;1.65;ICPMS;;;9.8;ICPMS;;;1.76;4.63;ICPMS;;;0.59;3.77;ICPMS;;;0.51;10.5;4.18;;;;;53;;4.29;ICPMS;;;;;;5.57;ICPMS;;;1.66;ICPMS;;;;;;;;;;;;;;;;;;;;;;;;;;;;;;;;;;;;;;;;;;;;;;;;;;;;;;;;;;;;;;;;;;;;;;;;;;;;;;;;;;;;;
2012;[16042] LE ROEX A. P. (2012);samp. LC-23;250762;MARION ISLANDS / MARION;BASE OF GOODHOPE BAY, WESTERN SHIELD;-46.75;37.75;-46.75;37.75;;;OUTCROP;;;SUBAERIAL;VOLCANIC ROCK;BENMOREITE;APHYRIC;;;;PLEISTOCENE;;;;;FRESH;;MINERAL / COMPONENT (INCL. GROUNDMASS);OLIVINE;;;;PRIMARY;;;;;32.88;0.06;;;;;;;;;;;;;;48.53;;;0.24;17.24;1.46;;;;;;;;;;;;;;;;;;;;;;;;;;;;;;;;;;;;;;;;;;;;;;;;;;;;;;;;;;;;;;;;;;;;;;;;;;;;;;;;;;;;;;;;;;;;;;;;;;;;;;;;;;;;;;;;;;;;;;;;;;;;;;;;;;;;;;;;;;;;;;;;;;;;;;;;;;;;;;;;;;;;;;;;;;;;;;;;;;;;;;;;;;;;;;;;;;;;;;;;;;;;;;;;;;;;;;;;;;;;;;;;;;;;;;;;;;;;;;;;;;;;;;;;;;38.1;;;;;;;;;;;;;;;;;;;;;;;;;;;;
2012;[16042] LE ROEX A. P. (2012);samp. LC-23;250762;MARION ISLANDS / MARION;BASE OF GOODHOPE BAY, WESTERN SHIELD;-46.75;37.75;-46.75;37.75;;;OUTCROP;;;SUBAERIAL;VOLCANIC ROCK;BENMOREITE;APHYRIC;;;;PLEISTOCENE;;;;;FRESH;;MINERAL / COMPONENT (INCL. GROUNDMASS);CLINOPYROXENE;;;;PRIMARY;;;;;44.25;0.71;;;;0.76;;;;;;;;;;;26.92;;11.36;14.27;0.98;;;;;;;;;;0.29;;;;;;;;;;;;;;;;;;;;;;;;;;;;;;;;;;;;;;;;;;;;;;;;;;;;;;;;;;;;;;;;;;;;;;;;;;;;;;;;;;;;;;;;;;;;;;;;;;;;;;;;;;;;;;;;;;;;;;;;;;;;;;;;;;;;;;;;;;;;;;;;;;;;;;;;;;;;;;;;;;;;;;;;;;;;;;;;;;;;;;;;;;;;;;;;;;;;;;;;;;;;;;;;;;;;;;;;;;;;;;;;;;;;;;;;;;;;;;30.6;;;46.1;;;;;;;;;;;;23.3;;;;;;;;;;;;;;;
2012;[16042] LE ROEX A. P. (2012);samp. LC-23;250762;MARION ISLANDS / MARION;BASE OF GOODHOPE BAY, WESTERN SHIELD;-46.75;37.75;-46.75;37.75;;;OUTCROP;;;SUBAERIAL;VOLCANIC ROCK;BENMOREITE;APHYRIC;;;;PLEISTOCENE;;;;;FRESH;;MINERAL / COMPONENT (INCL. GROUNDMASS);CLINOPYROXENE;;;;PRIMARY;;;;;50.1;1.49;;;;1.86;;;;;;;;;;;13.68;;20;11.51;0.64;;;;;;;;;;0.52;;;;;;;;;;;;;;;;;;;;;;;;;;;;;;;;;;;;;;;;;;;;;;;;;;;;;;;;;;;;;;;;;;;;;;;;;;;;;;;;;;;;;;;;;;;;;;;;;;;;;;;;;;;;;;;;;;;;;;;;;;;;;;;;;;;;;;;;;;;;;;;;;;;;;;;;;;;;;;;;;;;;;;;;;;;;;;;;;;;;;;;;;;;;;;;;;;;;;;;;;;;;;;;;;;;;;;;;;;;;;;;;;;;;;;;;;;;;;;33.9;;;23.7;;;;;;;;;;;;42.4;;;;;;;;;;;;;;;
2012;[16042] LE ROEX A. P. (2012);samp. LC-23;250762;MARION ISLANDS / MARION;BASE OF GOODHOPE BAY, WESTERN SHIELD;-46.75;37.75;-46.75;37.75;;;OUTCROP;;;SUBAERIAL;VOLCANIC ROCK;BENMOREITE;APHYRIC;;;;PLEISTOCENE;;;;;FRESH;;MINERAL / COMPONENT (INCL. GROUNDMASS);PLAGIOCLASE;;;;PRIMARY;;;;;57.99;;;;;25.55;;;;;;;;;;;0.82;;8.47;0.05;;;;;;;0.58;EMP (EPMA);;;5.79;;;;;;;;;;;;;;;;;;;;;;;;;;;;;;;;;;;;;;;;;;;;;;;;;;;;;;;;;;;;;;;;;;;;;;;;;;;;;;;;;;;;;;;;;;;;;;;;;;;;;;;;;;;;;;;;;;;;;;;;;;;;;;;;;;;;;;;;;;;;;;;;;;;;;;;;;;;;;;;;;;;;;;;;;;;;;;;;;;;;;;;;;;;;;;;;;;;;;;;;;;;;;;;;;;;;;;;;;;;;;;;;;;;;;;;;;;53.5;43.2;;;;;;;;;;;;;3.3;;;;;;;;;;;;;;;;;;;;
2012;[16042] LE ROEX A. P. (2012);samp. LC-23;250762;MARION ISLANDS / MARION;BASE OF GOODHOPE BAY, WESTERN SHIELD;-46.75;37.75;-46.75;37.75;;;OUTCROP;;;SUBAERIAL;VOLCANIC ROCK;BENMOREITE;APHYRIC;;;;PLEISTOCENE;;;;;FRESH;;MINERAL / COMPONENT (INCL. GROUNDMASS);MAGNETITE;;;;PRIMARY;;;;;0.06;19.1;;;;1.27;0;;;;;;;;41.77;75.6;38.02;;0;0.7;0.72;;;;;;;;;;;;;;;;;;;;;;;;;;;;;;;;;;;;;;;;;;;;;;;;;;;;;;;;;;;;;;;;;;;;;;;;;;;;;;;;;;;;;;;;;;;;;;;;;;;;;;;;;;;;;;;;;;;;;;;;;;;;;;;;;;;;;;;;;;;;;;;;;;;;;;;;;;;;;;;;;;;;;;;;;;;;;;;;;;;;;;;;;;;;;;;;;;;;;;;;;;;;;;;;;;;;;;;;;;;;;;;;;;;;;;;;;;;;;;;;;;;;;;;;;;;;;;;;;;;;;;52;;;;;;;;;;;;;;;;
2012;[16348] CHAUVEL C.(2012)  [GeoReM [6929] ];samp. UH108;;MARQUESAS / UA HUKA / HANE / POST-SHIELD STAGE;;-8.9;-139.5;-8.9;-139.5;;;OUTCROP;;;SUBAERIAL;VOLCANIC ROCK;BENMOREITE;;;2920000;2920000;PLIOCENE;;;;;;;WHOLE ROCK;;;;;;;;;;57.5;0.87;;;;17.65;;;;;;;;5.55;;;;;2.5;0;0.1;;;;;;5.3;ICPAES;;;5.15;0.48;;;;;;;;;;;;2.63;;;;;;;;;;;;;;;;;;;;;;;;;1.1995142253288;ICPMS;;;;9.12194554811679;ICPMS;;;;;;;3.15543047596475;ICPMS;;;0.659207536496089;ICPMS;;;3.03980552754179;ICPMS;;;;;;;;;;;;;;;117.041436599074;ICPMS;;;;;461.70998558607;ICPMS;;;;;28.0419658071516;ICPMS;;;660.342948156016;ICPMS;;;101.638833192717;ICPMS;;;;;;;;;;;;;0.338215172099516;ICPMS;;;819.342521215664;ICPMS;;;59.6859566769977;ICPMS;;;130.469577734199;ICPMS;;;12.2103040253754;42.2305011498299;ICPMS;;;;;6.96507365305654;ICPMS;;;2.03710561840438;ICPMS;;;5.4159174852162;ICPMS;;;0.843959015859195;ICPMS;;;4.66993603663791;ICPMS;;;0.886237068104768;2.32746947827565;ICPMS;;;;2.12501866294115;ICPMS;;;0.302103998974583;12.1576859312927;5.62203406524656;;;;;;;7.85619067167489;ICPMS;;;;;;10.9400725450471;ICPMS;;;2.37704887624794;ICPMS;;;;;;;;;;;;;;;;;;;;;;;;;;;;;;;;;;;;;;;;;;;;;;;;;;;;;;;;;;;;;;;;;;;;;;;;;;;;;;;;;;;;;
2012;[16431] NEMETH K. (2012);samp. LL5;;ANDEAN ARC / CENTRAL ANDEAN VOLCANIC ZONE / ARGENTINA / LOS LOROS / PAMPAS ONDULADAS FLOW;;-37.1;-69;-37.1;-69;;;OUTCROP;;;SUBAERIAL;VOLCANIC ROCK;BENMOREITE;;;1000000;1000000;QUATERNARY;;;;;;;WHOLE ROCK;;;;;;;;;;52.99;1.24;;;;17.48;;;;;;;;7.05;;;;;6.78;1.59;0.13;;;;;;3.57;NOT;;;5.47;0.55;;0.99;;;;;;;;;;;;;;;4.68;;;;;;;;;;;;;;;;;;;;7.27;NOT;;;;108;NOT;;;10.36;NOT;;;15.76;NOT;;;10.89;NOT;;;22.43;NOT;;;82.44;NOT;;;21.28;NOT;;;;;;;79.15;NOT;;;;;1616.13;NOT;;;;;19.5;NOT;;;379.94;NOT;;;60.04;NOT;;;;;;;;;;;;;2.59;NOT;;;430.62;NOT;;;41.29;NOT;;;71.28;NOT;;;7.79;28.78;NOT;;;;;4.69;NOT;;;1.5;NOT;;;4.4;NOT;;;0.66;NOT;;;3.92;NOT;;;0.72;2.03;NOT;;;0.35;2.3;NOT;;;0.29;8.1;4.62;;;;;;;10.34;NOT;;;;;;11.15;NOT;;;3.48;NOT;;;;;;;;;;;;;;;;;;;;;;;;;;;;;;;;;;;;;;;;;;;;;;;;;;;;;;;;;;;;;;;;;;;;;;;;;;;;;;;;;;;;;
2012;[16433] TAGLIANI S. (2012);samp. 1L;;ETNA/SICILY / ELLITTICO SEQUENCE;MT. CALVARIO DOME;37.65;14.87;37.65;14.87;;;OUTCROP;;;SUBAERIAL;VOLCANIC ROCK;BENMOREITE;;MASSIVE LAVA;;;QUATERNARY;;;;;;;WHOLE ROCK;;;;;;;;;;57.18;1.39;;;;17.45;;;;;;;;;5.11;;1.94;;6.16;2.32;0.15;;;;;;2.09;ICPMS;;;4.87;0.68;;;;;;;;0.13;;;;0.68;;;;;;;1100;;;;;;;;;;;;;;;;;;15;ICPMS;;;;116;ICPMS;;;;;;;11;ICPMS;;;;;;;;;;;;;;;;;;;;;;;54;ICPMS;;;;;1068;ICPMS;;;;;31;ICPMS;;;372;ICPMS;;;95;ICPMS;;;;;;;;;;;;;0.6;ICPMS;;;1329;ICPMS;;;128;ICPMS;;;229;ICPMS;;;23.1;85.5;ICPMS;;;;;14.4;ICPMS;;;4.07;ICPMS;;;11.5;ICPMS;;;;;;;7;ICPMS;;;;3.5;ICPMS;;;0.5;3.1;ICPMS;;;0.43;8.2;4.8;2;;;;;0.2;46;ICPMS;;;9.3;;;16.2;ICPMS;;;5;ICPMS;;;;;;;;;;;;;;;;;;;;;;;;;;;;;;;;;;;;;;;;;;;;;;;;;;;;;;;;;;;;;;;;;;;;;;;;;;;;;;;;;;;;;
2012;[16433] TAGLIANI S. (2012);samp. 2L;;ETNA/SICILY / ELLITTICO SEQUENCE;MT. CALVARIO DOME;37.65;14.87;37.65;14.87;;;OUTCROP;;;SUBAERIAL;VOLCANIC ROCK;BENMOREITE;;MASSIVE LAVA;;;QUATERNARY;;;;;;;WHOLE ROCK;;;;;;;;;;56.99;1.34;;;;17.4;;;;;;;;;6.9;;0.07;;6.47;2.21;0.14;;;;;;2.43;ICPMS;;;4.92;0.67;;;;;;;;0.03;;;;0.37;;;;;;;1400;;;;;;;;;;;;;;;;;;15;ICPMS;;;;86;ICPMS;;;;;;;9;ICPMS;;;;;;;;;;;;;;;;;;;;;;;95;ICPMS;;;;;1087;ICPMS;;;;;30;ICPMS;;;355;ICPMS;;;92;ICPMS;;;;;;;;;;;;;1.5;ICPMS;;;1258;ICPMS;;;123;ICPMS;;;225;ICPMS;;;22.5;82.8;ICPMS;;;;;14;ICPMS;;;3.97;ICPMS;;;10.8;ICPMS;;;;;;;6.9;ICPMS;;;;3.3;ICPMS;;;0.47;3;ICPMS;;;0.42;7.9;4.6;1;;;;;0.2;12;ICPMS;;;2.4;;;15.4;ICPMS;;;1.8;ICPMS;;;;;;;;;;;;;;;;;;;;;;;;;;;;;;;;;;;;;;;;;;;;;;;;;;;;;;;;;;;;;;;;;;;;;;;;;;;;;;;;;;;;;
2012;[16433] TAGLIANI S. (2012);samp. 3L;;ETNA/SICILY / ELLITTICO SEQUENCE;MT. CALVARIO DOME;37.65;14.87;37.65;14.87;;;OUTCROP;;;SUBAERIAL;VOLCANIC ROCK;BENMOREITE;;MASSIVE LAVA;;;QUATERNARY;;;;;;;WHOLE ROCK;;;;;;;;;;58.2;1.42;;;;17.41;;;;;;;;;6.77;;0.15;;5.44;2.32;0.16;;;;;;2.06;ICPMS;;;5.08;0.67;;;;;;;;0.07;;;;0.44;;;;;;;1300;;;;;;;;;;;;;;;;;;16;ICPMS;;;;111;ICPMS;;;;;;;11;ICPMS;;;;;;;;;;;;;;;;;;;;;;;65;ICPMS;;;;;1062;ICPMS;;;;;33;ICPMS;;;385;ICPMS;;;106;ICPMS;;;;;;;;;;;;;0.9;ICPMS;;;1241;ICPMS;;;132;ICPMS;;;236;ICPMS;;;24;88.9;ICPMS;;;;;15;ICPMS;;;4.12;ICPMS;;;11.8;ICPMS;;;;;;;7.5;ICPMS;;;;3.6;ICPMS;;;0.5;3.2;ICPMS;;;0.45;8.6;5;1;;;;;0.2;6;ICPMS;;;0.6;;;17.3;ICPMS;;;4.6;ICPMS;;;;;;;;;;;;;;;;;;;;;;;;;;;;;;;;;;;;;;;;;;;;;;;;;;;;;;;;;;;;;;;;;;;;;;;;;;;;;;;;;;;;;
2012;[16433] TAGLIANI S. (2012);samp. 4L;;ETNA/SICILY / ELLITTICO SEQUENCE;MT. CALVARIO DOME;37.65;14.87;37.65;14.87;;;OUTCROP;;;SUBAERIAL;VOLCANIC ROCK;BENMOREITE;;MASSIVE LAVA;;;QUATERNARY;;;;;;;WHOLE ROCK;;;;;;;;;;57.92;1.38;;;;17.41;;;;;;;;;6.77;;0.5;;5.4;2.29;0.16;;;;;;2.15;ICPMS;;;4.94;0.68;;;;;;;;0.08;;;;0.33;;;;;;;1000;;;;;;;;;;;;;;;;;;14;ICPMS;;;;117;ICPMS;;;;;;;11;ICPMS;;;;;;;;;;;;;;;;;;;;;;;65;ICPMS;;;;;1089;ICPMS;;;;;32;ICPMS;;;375;ICPMS;;;100;ICPMS;;;;;;;;;;;;;0.6;ICPMS;;;1239;ICPMS;;;131;ICPMS;;;233;ICPMS;;;23.3;84.2;ICPMS;;;;;14.3;ICPMS;;;3.97;ICPMS;;;10.6;ICPMS;;;;;;;7;ICPMS;;;;3.4;ICPMS;;;0.49;3.1;ICPMS;;;0.44;8.1;4.8;3;;;;;0;9;ICPMS;;;0.8;;;16.4;ICPMS;;;4.8;ICPMS;;;;;;;;;;;;;;;;;;;;;;;;;;;;;;;;;;;;;;;;;;;;;;;;;;;;;;;;;;;;;;;;;;;;;;;;;;;;;;;;;;;;;