Year;CITATION;SAMPLE NAME;UNIQUE_ID;LOCATION;LOCATION COMMENT;LATITUDE (MIN.);LONGITUDE (MIN.);LATITUDE (MAX.);LONGITUDE (MAX.);ELEVATION (MIN.);ELEVATION (MAX.);SAMPLING TECHNIQUE;DRILLING DEPTH (MIN.);DRILLING DEPTH (MAX.);LAND/SEA (SAMPLING);ROCK TYPE;ROCK NAME;ROCK TEXTURE;SAMPLE COMMENT;AGE (MIN.);AGE (MAX.);GEOLOGICAL AGE;GEOLOGICAL AGE PREFIX;ERUPTION DAY;ERUPTION MONTH;ERUPTION YEAR;ALTERATION;ALTERATION TYPE;TYPE OF MATERIAL;MINERAL / COMPONENT;SPOT (MINERAL);CRYSTAL;RIM / CORE (MINERAL GRAINS);PRIMARY/SECONDARY;INCLUSION TYPE;MINERAL (INCLUSION);HOSTMINERAL (INCLUSION);HEATING;SIO2(WT%);TIO2(WT%);ZRO2(WT%);HFO2(WT%);THO2(WT%);AL2O3(WT%);CR2O3(WT%);LA2O3(WT%);CE2O3(WT%);ND2O3(WT%);SM2O3(WT%);V2O3(WT%);NB2O5(WT%);FE2O3T(WT%);FE2O3(WT%);FEOT(WT%);FEO(WT%);FET(WT%);CAO(WT%);MGO(WT%);MNO(WT%);BAO(WT%);SRO(WT%);NIO(WT%);ZNO(WT%);RB2O(WT%);K2O(WT%);;;;NA2O(WT%);P2O5(WT%);AS2O5(WT%);H2O(WT%);H2OP(WT%);H2OM(WT%);CO2(WT%);C(WT%);F(WT%);CL(WT%);OH(WT%);SO3(WT%);S(WT%);LOI(WT%);TI(WT%);CA(WT%);K(WT%);LI(PPM);BE(PPM);B(PPM);F(PPM);P(PPM);S(PPM);CL(PPM);AR40(AT/G);;;;AR40(CCMSTP/G);;;;AR40(MOL/G);;;;AR40(PPB);K(PPM);SC(PPM);;;;TI(PPM);V(PPM);;;;CR(PPM);;;;CO(PPM);;;;NI(PPM);;;;CU(PPM);;;;ZN(PPM);;;;GA(PPM);;;;GE(PPM);AS(PPM);AS(PPB);SE(PPM);RB(PPM);;;;;;SR(PPM);;;;;;Y(PPM);;;;ZR(PPM);;;;NB(PPM);;;;MO(PPM);AG(PPM);CD(PPM);IN(PPM);SN(PPM);SB(PPM): altern. values or methods;;;;TE(PPM);CS(PPM): altern. values or methods;;;;BA(PPM): altern. values or methods;;;;LA(PPM): altern. values or methods;;;;CE(PPM): altern. values or methods;;;;PR(PPM);ND(PPM): altern. values or methods;;;;;;SM(PPM): altern. values or methods;;;;EU(PPM): altern. values or methods;;;;GD(PPM): altern. values or methods;;;;TB(PPM): altern. values or methods;;;;DY(PPM): altern. values or methods;;;;HO(PPM);ER(PPM): altern. values or methods;;;;TM(PPM);YB(PPM): altern. values or methods;;;;LU(PPM);HF(PPM);TA(PPM);W(PPM);RE(PPM);AU(PPM);HG(PPM);HG(PPB);TL(PPM);PB(PPM): altern. values or methods;;;;BI(PPM);PO210_ACT(DPM/G);RA226_ACT(DPM/G);TH(PPM): altern. values or methods;;;;U(PPM): altern. values or methods;;;;ND143_ND144;ND143_ND144_INI;EPSILON_ND;EPSILON_ND_INI;SM147_ND144;SR87_SR86;SR87_SR86_INI;EPSILON_SR_INI;RB87_SR86;PB206_PB204: altern. values or methods;;;;PB206_PB204_INI;PB207_PB204: altern. values or methods;;;;PB207_PB204_INI;PB207_PB206;PB208_PB204: altern. values or methods;;;;PB208_PB204_INI;PB208_PB206;HF176_HF177;LU176_HF177;AR38_AR36;AR40_AR36;AR40_AR36_INI;PB206_U238;PB207_U235;RA226_TH230_ACT;PA231_U235_ACT;TH230_TH232_ACT;TH230_U238_ACT;TH232_PB204;U234_U238_ACT;U235_PB204;U238_PB204;U238_TH232_ACT;D7LI(VS LSVEC);D13C(VS PDB);D18O(PER MIL);D18O(VS SMOW);D18O(VS VSMOW);D34S(VS VCDT);ALBITE(MOL%);ANORTHITE(MOL%);CA OLIVINE(MOL%);CHROMITE(MOL%);ENSTATITE(MOL%);FAYALITE(MOL%);FORSTERITE(MOL%);FERROSILITE(MOL%);HEMATITE(MOL%);HERCYNITE(MOL%);ILMENITE(MOL%);MAGNESIOFERRITE(MOL%);MONTICELLITE(MOL%);MAGNETITE(MOL%);ORTHOCLASE(MOL%);PICROCHROMITE(MOL%);SPINEL(MOL%);TEPHROITE(MOL%);ULVOSPINEL(MOL%);WOLLASTONITE(MOL%);AGE(KA): altern. values or methods;;;;;;AGE(MA): altern. values or methods;;;;;;AGE_PB207_U235(MA);AGE_PB206_U238(MA);
2009;[13787] SMITH D. J.(2009)  [GeoReM [4914] ];samp. SV43;;SOLOMON ISLAND ARC / SOLOMON ISLAND ARC - CENTRAL PROVINCE / SAVO;MBAZO;-9.17;159.83;-9.17;159.83;;;OUTCROP;;;SUBAQUATIC;VOLCANIC ROCK;BENMOREITE;;;;;;;;;;;;MINERAL / COMPONENT (INCL. GROUNDMASS);FELDSPAR;15-070;;CORE;PRIMARY;;;;;55.108;;;;;27.347;;;;;;;;;;0.278;;;10.119;;;0.015;0.202;;;;0.33;EMP (EPMA);;;5.371;;;;;;;;;;;;;;;;;;;;;;;;;;;;;;;;;;;;;;;;;;;;;;;;;;;;;;;;;;;;;;;;;;;;;;;;;;;;;;;;;;;;;;;;;;;;;;;;;;;;;;;;;;;;;;;;;;;;;;;;;;;;;;;;;;;;;;;;;;;;;;;;;;;;;;;;;;;;;;;;;;;;;;;;;;;;;;;;;;;;;;;;;;;;;;;;;;;;;;;;;;;;;;;;;;;;;;;;;;;;;;;;;;;;;;;;;;48.0416172125559;50.0164145559231;;;;;;;;;;;;;1.941968231521;;;;;;;;;;;;;;;;;;;;
2009;[13787] SMITH D. J.(2009)  [GeoReM [4914] ];samp. SV43;;SOLOMON ISLAND ARC / SOLOMON ISLAND ARC - CENTRAL PROVINCE / SAVO;MBAZO;-9.17;159.83;-9.17;159.83;;;OUTCROP;;;SUBAQUATIC;VOLCANIC ROCK;BENMOREITE;;;;;;;;;;;;MINERAL / COMPONENT (INCL. GROUNDMASS);FELDSPAR;15-071;;;PRIMARY;;;;;57.086;;;;;26.198;;;;;;;;;;0.216;;;8.753;;;0.036;0.185;;;;0.43;EMP (EPMA);;;6.027;;;;;;;;;;;;;;;;;;;;;;;;;;;;;;;;;;;;;;;;;;;;;;;;;;;;;;;;;;;;;;;;;;;;;;;;;;;;;;;;;;;;;;;;;;;;;;;;;;;;;;;;;;;;;;;;;;;;;;;;;;;;;;;;;;;;;;;;;;;;;;;;;;;;;;;;;;;;;;;;;;;;;;;;;;;;;;;;;;;;;;;;;;;;;;;;;;;;;;;;;;;;;;;;;;;;;;;;;;;;;;;;;;;;;;;;;;54.0692784135804;43.3920424132745;;;;;;;;;;;;;2.53867917314506;;;;;;;;;;;;;;;;;;;;
2009;[13787] SMITH D. J.(2009)  [GeoReM [4914] ];samp. SV43;;SOLOMON ISLAND ARC / SOLOMON ISLAND ARC - CENTRAL PROVINCE / SAVO;MBAZO;-9.17;159.83;-9.17;159.83;;;OUTCROP;;;SUBAQUATIC;VOLCANIC ROCK;BENMOREITE;;;;;;;;;;;;MINERAL / COMPONENT (INCL. GROUNDMASS);FELDSPAR;15-072;;;PRIMARY;;;;;52.309;;;;;28.957;;;;;;;;;;0.251;;;12.227;;;0.03;0.218;;;;0.226;EMP (EPMA);;;4.166;;;;;;;;;;;;;;;;;;;;;;;;;;;;;;;;;;;;;;;;;;;;;;;;;;;;;;;;;;;;;;;;;;;;;;;;;;;;;;;;;;;;;;;;;;;;;;;;;;;;;;;;;;;;;;;;;;;;;;;;;;;;;;;;;;;;;;;;;;;;;;;;;;;;;;;;;;;;;;;;;;;;;;;;;;;;;;;;;;;;;;;;;;;;;;;;;;;;;;;;;;;;;;;;;;;;;;;;;;;;;;;;;;;;;;;;;;37.6281371509367;61.0286320254507;;;;;;;;;;;;;1.34323082361258;;;;;;;;;;;;;;;;;;;;
2009;[13787] SMITH D. J.(2009)  [GeoReM [4914] ];samp. SV43;;SOLOMON ISLAND ARC / SOLOMON ISLAND ARC - CENTRAL PROVINCE / SAVO;MBAZO;-9.17;159.83;-9.17;159.83;;;OUTCROP;;;SUBAQUATIC;VOLCANIC ROCK;BENMOREITE;;;;;;;;;;;;MINERAL / COMPONENT (INCL. GROUNDMASS);FELDSPAR;15-073;;;PRIMARY;;;;;57.188;;;;;25.936;;;;;;;;;;0.2;;;8.452;;;0.046;0.23;;;;0.472;EMP (EPMA);;;6.142;;;;;;;;;;;;;;;;;;;;;;;;;;;;;;;;;;;;;;;;;;;;;;;;;;;;;;;;;;;;;;;;;;;;;;;;;;;;;;;;;;;;;;;;;;;;;;;;;;;;;;;;;;;;;;;;;;;;;;;;;;;;;;;;;;;;;;;;;;;;;;;;;;;;;;;;;;;;;;;;;;;;;;;;;;;;;;;;;;;;;;;;;;;;;;;;;;;;;;;;;;;;;;;;;;;;;;;;;;;;;;;;;;;;;;;;;;55.2172251242196;41.9900624283348;;;;;;;;;;;;;2.79271244744553;;;;;;;;;;;;;;;;;;;;
2009;[13787] SMITH D. J.(2009)  [GeoReM [4914] ];samp. SV43;;SOLOMON ISLAND ARC / SOLOMON ISLAND ARC - CENTRAL PROVINCE / SAVO;MBAZO;-9.17;159.83;-9.17;159.83;;;OUTCROP;;;SUBAQUATIC;VOLCANIC ROCK;BENMOREITE;;;;;;;;;;;;MINERAL / COMPONENT (INCL. GROUNDMASS);FELDSPAR;15-074;;;PRIMARY;;;;;58.111;;;;;25.515;;;;;;;;;;0.239;;;7.906;;;0.047;0.224;;;;0.485;EMP (EPMA);;;6.624;;;;;;;;;;;;;;;;;;;;;;;;;;;;;;;;;;;;;;;;;;;;;;;;;;;;;;;;;;;;;;;;;;;;;;;;;;;;;;;;;;;;;;;;;;;;;;;;;;;;;;;;;;;;;;;;;;;;;;;;;;;;;;;;;;;;;;;;;;;;;;;;;;;;;;;;;;;;;;;;;;;;;;;;;;;;;;;;;;;;;;;;;;;;;;;;;;;;;;;;;;;;;;;;;;;;;;;;;;;;;;;;;;;;;;;;;;58.5584677419355;38.6214717741936;;;;;;;;;;;;;2.82006048387097;;;;;;;;;;;;;;;;;;;;
2009;[13787] SMITH D. J.(2009)  [GeoReM [4914] ];samp. SV43;;SOLOMON ISLAND ARC / SOLOMON ISLAND ARC - CENTRAL PROVINCE / SAVO;MBAZO;-9.17;159.83;-9.17;159.83;;;OUTCROP;;;SUBAQUATIC;VOLCANIC ROCK;BENMOREITE;;;;;;;;;;;;MINERAL / COMPONENT (INCL. GROUNDMASS);FELDSPAR;15-075;;;PRIMARY;;;;;57.318;;;;;25.7;;;;;;;;;;0.224;;;8.297;;;0.059;0.231;;;;0.397;EMP (EPMA);;;6.36;;;;;;;;;;;;;;;;;;;;;;;;;;;;;;;;;;;;;;;;;;;;;;;;;;;;;;;;;;;;;;;;;;;;;;;;;;;;;;;;;;;;;;;;;;;;;;;;;;;;;;;;;;;;;;;;;;;;;;;;;;;;;;;;;;;;;;;;;;;;;;;;;;;;;;;;;;;;;;;;;;;;;;;;;;;;;;;;;;;;;;;;;;;;;;;;;;;;;;;;;;;;;;;;;;;;;;;;;;;;;;;;;;;;;;;;;;56.7554589567327;40.9143752527295;;;;;;;;;;;;;2.33016579053781;;;;;;;;;;;;;;;;;;;;
2009;[13787] SMITH D. J.(2009)  [GeoReM [4914] ];samp. SV43;;SOLOMON ISLAND ARC / SOLOMON ISLAND ARC - CENTRAL PROVINCE / SAVO;MBAZO;-9.17;159.83;-9.17;159.83;;;OUTCROP;;;SUBAQUATIC;VOLCANIC ROCK;BENMOREITE;;;;;;;;;;;;MINERAL / COMPONENT (INCL. GROUNDMASS);FELDSPAR;15-076;;;PRIMARY;;;;;55.777;;;;;26.908;;;;;;;;;;0.227;;;9.627;;;0.041;0.17;;;;0.28;EMP (EPMA);;;5.762;;;;;;;;;;;;;;;;;;;;;;;;;;;;;;;;;;;;;;;;;;;;;;;;;;;;;;;;;;;;;;;;;;;;;;;;;;;;;;;;;;;;;;;;;;;;;;;;;;;;;;;;;;;;;;;;;;;;;;;;;;;;;;;;;;;;;;;;;;;;;;;;;;;;;;;;;;;;;;;;;;;;;;;;;;;;;;;;;;;;;;;;;;;;;;;;;;;;;;;;;;;;;;;;;;;;;;;;;;;;;;;;;;;;;;;;;;51.1449231696294;47.2205483579391;;;;;;;;;;;;;1.63452847243146;;;;;;;;;;;;;;;;;;;;
2009;[13787] SMITH D. J.(2009)  [GeoReM [4914] ];samp. SV43;;SOLOMON ISLAND ARC / SOLOMON ISLAND ARC - CENTRAL PROVINCE / SAVO;MBAZO;-9.17;159.83;-9.17;159.83;;;OUTCROP;;;SUBAQUATIC;VOLCANIC ROCK;BENMOREITE;;;;;;;;;;;;MINERAL / COMPONENT (INCL. GROUNDMASS);FELDSPAR;15-077;;RIM;PRIMARY;;;;;58.285;;;;;25.274;;;;;;;;;;0.378;;;7.839;;;0.052;0.2;;;;0.424;EMP (EPMA);;;6.775;;;;;;;;;;;;;;;;;;;;;;;;;;;;;;;;;;;;;;;;;;;;;;;;;;;;;;;;;;;;;;;;;;;;;;;;;;;;;;;;;;;;;;;;;;;;;;;;;;;;;;;;;;;;;;;;;;;;;;;;;;;;;;;;;;;;;;;;;;;;;;;;;;;;;;;;;;;;;;;;;;;;;;;;;;;;;;;;;;;;;;;;;;;;;;;;;;;;;;;;;;;;;;;;;;;;;;;;;;;;;;;;;;;;;;;;;;59.5040701314966;38.0463368816531;;;;;;;;;;;;;2.44959298685034;;;;;;;;;;;;;;;;;;;;
2009;[13787] SMITH D. J.(2009)  [GeoReM [4914] ];samp. SV43;;SOLOMON ISLAND ARC / SOLOMON ISLAND ARC - CENTRAL PROVINCE / SAVO;MBAZO;-9.17;159.83;-9.17;159.83;;;OUTCROP;;;SUBAQUATIC;VOLCANIC ROCK;BENMOREITE;;;;;;;;;;;;MINERAL / COMPONENT (INCL. GROUNDMASS);FELDSPAR;15-078;;CORE;PRIMARY;;;;;52.911;;;;;28.067;;;;;;;;;;0.134;;;11.218;;;0.022;0.119;;;;0.16;EMP (EPMA);;;4.759;;;;;;;;;;;;;;;;;;;;;;;;;;;;;;;;;;;;;;;;;;;;;;;;;;;;;;;;;;;;;;;;;;;;;;;;;;;;;;;;;;;;;;;;;;;;;;;;;;;;;;;;;;;;;;;;;;;;;;;;;;;;;;;;;;;;;;;;;;;;;;;;;;;;;;;;;;;;;;;;;;;;;;;;;;;;;;;;;;;;;;;;;;;;;;;;;;;;;;;;;;;;;;;;;;;;;;;;;;;;;;;;;;;;;;;;;;43.0156936597615;56.0326428123038;;;;;;;;;;;;;0.951663527934714;;;;;;;;;;;;;;;;;;;;
2009;[13787] SMITH D. J.(2009)  [GeoReM [4914] ];samp. SV43;;SOLOMON ISLAND ARC / SOLOMON ISLAND ARC - CENTRAL PROVINCE / SAVO;MBAZO;-9.17;159.83;-9.17;159.83;;;OUTCROP;;;SUBAQUATIC;VOLCANIC ROCK;BENMOREITE;;;;;;;;;;;;MINERAL / COMPONENT (INCL. GROUNDMASS);FELDSPAR;15-079;;;PRIMARY;;;;;58.686;;;;;25.168;;;;;;;;;;0.18;;;7.34;;;0.032;0.097;;;;0.337;EMP (EPMA);;;6.919;;;;;;;;;;;;;;;;;;;;;;;;;;;;;;;;;;;;;;;;;;;;;;;;;;;;;;;;;;;;;;;;;;;;;;;;;;;;;;;;;;;;;;;;;;;;;;;;;;;;;;;;;;;;;;;;;;;;;;;;;;;;;;;;;;;;;;;;;;;;;;;;;;;;;;;;;;;;;;;;;;;;;;;;;;;;;;;;;;;;;;;;;;;;;;;;;;;;;;;;;;;;;;;;;;;;;;;;;;;;;;;;;;;;;;;;;;61.7938338552407;36.2254639883907;;;;;;;;;;;;;1.98070215636854;;;;;;;;;;;;;;;;;;;;
2009;[13787] SMITH D. J.(2009)  [GeoReM [4914] ];samp. SV43;;SOLOMON ISLAND ARC / SOLOMON ISLAND ARC - CENTRAL PROVINCE / SAVO;MBAZO;-9.17;159.83;-9.17;159.83;;;OUTCROP;;;SUBAQUATIC;VOLCANIC ROCK;BENMOREITE;;;;;;;;;;;;MINERAL / COMPONENT (INCL. GROUNDMASS);FELDSPAR;15-080;;;PRIMARY;;;;;58.32;;;;;25.435;;;;;;;;;;0.176;;;7.734;;;0.037;0.145;;;;0.305;EMP (EPMA);;;6.742;;;;;;;;;;;;;;;;;;;;;;;;;;;;;;;;;;;;;;;;;;;;;;;;;;;;;;;;;;;;;;;;;;;;;;;;;;;;;;;;;;;;;;;;;;;;;;;;;;;;;;;;;;;;;;;;;;;;;;;;;;;;;;;;;;;;;;;;;;;;;;;;;;;;;;;;;;;;;;;;;;;;;;;;;;;;;;;;;;;;;;;;;;;;;;;;;;;;;;;;;;;;;;;;;;;;;;;;;;;;;;;;;;;;;;;;;;60.1072481447596;38.1035884924266;;;;;;;;;;;;;1.78916336281387;;;;;;;;;;;;;;;;;;;;
2009;[13787] SMITH D. J.(2009)  [GeoReM [4914] ];samp. SV43;;SOLOMON ISLAND ARC / SOLOMON ISLAND ARC - CENTRAL PROVINCE / SAVO;MBAZO;-9.17;159.83;-9.17;159.83;;;OUTCROP;;;SUBAQUATIC;VOLCANIC ROCK;BENMOREITE;;;;;;;;;;;;MINERAL / COMPONENT (INCL. GROUNDMASS);FELDSPAR;15-081;;;PRIMARY;;;;;55.415;;;;;27.215;;;;;;;;;;0.279;;;9.938;;;0.029;0.224;;;;0.201;EMP (EPMA);;;5.588;;;;;;;;;;;;;;;;;;;;;;;;;;;;;;;;;;;;;;;;;;;;;;;;;;;;;;;;;;;;;;;;;;;;;;;;;;;;;;;;;;;;;;;;;;;;;;;;;;;;;;;;;;;;;;;;;;;;;;;;;;;;;;;;;;;;;;;;;;;;;;;;;;;;;;;;;;;;;;;;;;;;;;;;;;;;;;;;;;;;;;;;;;;;;;;;;;;;;;;;;;;;;;;;;;;;;;;;;;;;;;;;;;;;;;;;;;49.8397961500618;48.9794888614174;;;;;;;;;;;;;1.18071498852083;;;;;;;;;;;;;;;;;;;;
2009;[13787] SMITH D. J.(2009)  [GeoReM [4914] ];samp. SV43;;SOLOMON ISLAND ARC / SOLOMON ISLAND ARC - CENTRAL PROVINCE / SAVO;MBAZO;-9.17;159.83;-9.17;159.83;;;OUTCROP;;;SUBAQUATIC;VOLCANIC ROCK;BENMOREITE;;;;;;;;;;;;MINERAL / COMPONENT (INCL. GROUNDMASS);FELDSPAR;15-083;;RIM;PRIMARY;;;;;57.425;;;;;25.53;;;;;;;;;;0.402;;;8.261;;;0.035;0.163;;;;0.444;EMP (EPMA);;;6.498;;;;;;;;;;;;;;;;;;;;;;;;;;;;;;;;;;;;;;;;;;;;;;;;;;;;;;;;;;;;;;;;;;;;;;;;;;;;;;;;;;;;;;;;;;;;;;;;;;;;;;;;;;;;;;;;;;;;;;;;;;;;;;;;;;;;;;;;;;;;;;;;;;;;;;;;;;;;;;;;;;;;;;;;;;;;;;;;;;;;;;;;;;;;;;;;;;;;;;;;;;;;;;;;;;;;;;;;;;;;;;;;;;;;;;;;;;57.2248708284452;40.2016823502983;;;;;;;;;;;;;2.57344682125652;;;;;;;;;;;;;;;;;;;;
2009;[13787] SMITH D. J.(2009)  [GeoReM [4914] ];samp. SV43;;SOLOMON ISLAND ARC / SOLOMON ISLAND ARC - CENTRAL PROVINCE / SAVO;MBAZO;-9.17;159.83;-9.17;159.83;;;OUTCROP;;;SUBAQUATIC;VOLCANIC ROCK;BENMOREITE;;;;;;;;;;;;MINERAL / COMPONENT (INCL. GROUNDMASS);FELDSPAR;15-084;;CORE;PRIMARY;;;;;54.37;;;;;27.89;;;;;;;;;;0.369;;;10.676;;;0.023;0.183;;;;0.171;EMP (EPMA);;;5.129;;;;;;;;;;;;;;;;;;;;;;;;;;;;;;;;;;;;;;;;;;;;;;;;;;;;;;;;;;;;;;;;;;;;;;;;;;;;;;;;;;;;;;;;;;;;;;;;;;;;;;;;;;;;;;;;;;;;;;;;;;;;;;;;;;;;;;;;;;;;;;;;;;;;;;;;;;;;;;;;;;;;;;;;;;;;;;;;;;;;;;;;;;;;;;;;;;;;;;;;;;;;;;;;;;;;;;;;;;;;;;;;;;;;;;;;;;46.0370098473534;52.9529402830165;;;;;;;;;;;;;1.01004986963015;;;;;;;;;;;;;;;;;;;;
2009;[13787] SMITH D. J.(2009)  [GeoReM [4914] ];samp. SV43;;SOLOMON ISLAND ARC / SOLOMON ISLAND ARC - CENTRAL PROVINCE / SAVO;MBAZO;-9.17;159.83;-9.17;159.83;;;OUTCROP;;;SUBAQUATIC;VOLCANIC ROCK;BENMOREITE;;;;;;;;;;;;MINERAL / COMPONENT (INCL. GROUNDMASS);FELDSPAR;15-085;;;PRIMARY;;;;;53.974;;;;;27.532;;;;;;;;;;0.581;;;10.666;;;0.024;0.158;;;;0.167;EMP (EPMA);;;4.976;;;;;;;;;;;;;;;;;;;;;;;;;;;;;;;;;;;;;;;;;;;;;;;;;;;;;;;;;;;;;;;;;;;;;;;;;;;;;;;;;;;;;;;;;;;;;;;;;;;;;;;;;;;;;;;;;;;;;;;;;;;;;;;;;;;;;;;;;;;;;;;;;;;;;;;;;;;;;;;;;;;;;;;;;;;;;;;;;;;;;;;;;;;;;;;;;;;;;;;;;;;;;;;;;;;;;;;;;;;;;;;;;;;;;;;;;;45.3185906091565;53.680161015006;;;;;;;;;;;;;1.00124837583756;;;;;;;;;;;;;;;;;;;;
2009;[13787] SMITH D. J.(2009)  [GeoReM [4914] ];samp. SV43;;SOLOMON ISLAND ARC / SOLOMON ISLAND ARC - CENTRAL PROVINCE / SAVO;MBAZO;-9.17;159.83;-9.17;159.83;;;OUTCROP;;;SUBAQUATIC;VOLCANIC ROCK;BENMOREITE;;;;;;;;;;;;MINERAL / COMPONENT (INCL. GROUNDMASS);FELDSPAR;15-086;;;PRIMARY;;;;;55.127;;;;;27.174;;;;;;;;;;0.414;;;10.085;;;0.007;0.136;;;;0.152;EMP (EPMA);;;5.395;;;;;;;;;;;;;;;;;;;;;;;;;;;;;;;;;;;;;;;;;;;;;;;;;;;;;;;;;;;;;;;;;;;;;;;;;;;;;;;;;;;;;;;;;;;;;;;;;;;;;;;;;;;;;;;;;;;;;;;;;;;;;;;;;;;;;;;;;;;;;;;;;;;;;;;;;;;;;;;;;;;;;;;;;;;;;;;;;;;;;;;;;;;;;;;;;;;;;;;;;;;;;;;;;;;;;;;;;;;;;;;;;;;;;;;;;;48.7434754933164;50.3526416295353;;;;;;;;;;;;;0.903882877148313;;;;;;;;;;;;;;;;;;;;
2009;[13787] SMITH D. J.(2009)  [GeoReM [4914] ];samp. SV43;;SOLOMON ISLAND ARC / SOLOMON ISLAND ARC - CENTRAL PROVINCE / SAVO;MBAZO;-9.17;159.83;-9.17;159.83;;;OUTCROP;;;SUBAQUATIC;VOLCANIC ROCK;BENMOREITE;;;;;;;;;;;;MINERAL / COMPONENT (INCL. GROUNDMASS);FELDSPAR;15-087;;RIM;PRIMARY;;;;;59.935;;;;;24.109;;;;;;;;;;0.38;;;6.944;;;0.04;0.138;;;;0.728;EMP (EPMA);;;6.619;;;;;;;;;;;;;;;;;;;;;;;;;;;;;;;;;;;;;;;;;;;;;;;;;;;;;;;;;;;;;;;;;;;;;;;;;;;;;;;;;;;;;;;;;;;;;;;;;;;;;;;;;;;;;;;;;;;;;;;;;;;;;;;;;;;;;;;;;;;;;;;;;;;;;;;;;;;;;;;;;;;;;;;;;;;;;;;;;;;;;;;;;;;;;;;;;;;;;;;;;;;;;;;;;;;;;;;;;;;;;;;;;;;;;;;;;;60.5292028001254;35.0903771810678;;;;;;;;;;;;;4.38042001880681;;;;;;;;;;;;;;;;;;;;
2009;[13787] SMITH D. J.(2009)  [GeoReM [4914] ];samp. SV43;;SOLOMON ISLAND ARC / SOLOMON ISLAND ARC - CENTRAL PROVINCE / SAVO;MBAZO;-9.17;159.83;-9.17;159.83;;;OUTCROP;;;SUBAQUATIC;VOLCANIC ROCK;BENMOREITE;;;;;;;;;;;;MINERAL / COMPONENT (INCL. GROUNDMASS);FELDSPAR;15-088;;CORE;PRIMARY;;;;;57.418;;;;;26.046;;;;;;;;;;0.22;;;8.322;;;0.051;0.246;;;;0.353;EMP (EPMA);;;6.288;;;;;;;;;;;;;;;;;;;;;;;;;;;;;;;;;;;;;;;;;;;;;;;;;;;;;;;;;;;;;;;;;;;;;;;;;;;;;;;;;;;;;;;;;;;;;;;;;;;;;;;;;;;;;;;;;;;;;;;;;;;;;;;;;;;;;;;;;;;;;;;;;;;;;;;;;;;;;;;;;;;;;;;;;;;;;;;;;;;;;;;;;;;;;;;;;;;;;;;;;;;;;;;;;;;;;;;;;;;;;;;;;;;;;;;;;;56.5505422549621;41.3597298956415;;;;;;;;;;;;;2.08972784939636;;;;;;;;;;;;;;;;;;;;
2009;[13787] SMITH D. J.(2009)  [GeoReM [4914] ];samp. SV43;;SOLOMON ISLAND ARC / SOLOMON ISLAND ARC - CENTRAL PROVINCE / SAVO;MBAZO;-9.17;159.83;-9.17;159.83;;;OUTCROP;;;SUBAQUATIC;VOLCANIC ROCK;BENMOREITE;;;;;;;;;;;;MINERAL / COMPONENT (INCL. GROUNDMASS);FELDSPAR;15-089;;;PRIMARY;;;;;57.471;;;;;25.694;;;;;;;;;;0.197;;;7.962;;;0;0.282;;;;0.398;EMP (EPMA);;;6.469;;;;;;;;;;;;;;;;;;;;;;;;;;;;;;;;;;;;;;;;;;;;;;;;;;;;;;;;;;;;;;;;;;;;;;;;;;;;;;;;;;;;;;;;;;;;;;;;;;;;;;;;;;;;;;;;;;;;;;;;;;;;;;;;;;;;;;;;;;;;;;;;;;;;;;;;;;;;;;;;;;;;;;;;;;;;;;;;;;;;;;;;;;;;;;;;;;;;;;;;;;;;;;;;;;;;;;;;;;;;;;;;;;;;;;;;;;58.1193536073292;39.5292021885736;;;;;;;;;;;;;2.35144420409721;;;;;;;;;;;;;;;;;;;;
2009;[13787] SMITH D. J.(2009)  [GeoReM [4914] ];samp. SV43;;SOLOMON ISLAND ARC / SOLOMON ISLAND ARC - CENTRAL PROVINCE / SAVO;MBAZO;-9.17;159.83;-9.17;159.83;;;OUTCROP;;;SUBAQUATIC;VOLCANIC ROCK;BENMOREITE;;;;;;;;;;;;MINERAL / COMPONENT (INCL. GROUNDMASS);FELDSPAR;15-090;;;PRIMARY;;;;;60.265;;;;;24.174;;;;;;;;;;0.236;;;6.322;;;0.046;0.203;;;;0.581;EMP (EPMA);;;7.364;;;;;;;;;;;;;;;;;;;;;;;;;;;;;;;;;;;;;;;;;;;;;;;;;;;;;;;;;;;;;;;;;;;;;;;;;;;;;;;;;;;;;;;;;;;;;;;;;;;;;;;;;;;;;;;;;;;;;;;;;;;;;;;;;;;;;;;;;;;;;;;;;;;;;;;;;;;;;;;;;;;;;;;;;;;;;;;;;;;;;;;;;;;;;;;;;;;;;;;;;;;;;;;;;;;;;;;;;;;;;;;;;;;;;;;;;;65.5171534243081;31.0827700548399;;;;;;;;;;;;;3.40007652085193;;;;;;;;;;;;;;;;;;;;
2009;[13787] SMITH D. J.(2009)  [GeoReM [4914] ];samp. SV43;;SOLOMON ISLAND ARC / SOLOMON ISLAND ARC - CENTRAL PROVINCE / SAVO;MBAZO;-9.17;159.83;-9.17;159.83;;;OUTCROP;;;SUBAQUATIC;VOLCANIC ROCK;BENMOREITE;;;;;;;;;;;;MINERAL / COMPONENT (INCL. GROUNDMASS);FELDSPAR;15-091;;;PRIMARY;;;;;59.993;;;;;24.278;;;;;;;;;;0.248;;;6.581;;;0.017;0.119;;;;0.523;EMP (EPMA);;;7.23;;;;;;;;;;;;;;;;;;;;;;;;;;;;;;;;;;;;;;;;;;;;;;;;;;;;;;;;;;;;;;;;;;;;;;;;;;;;;;;;;;;;;;;;;;;;;;;;;;;;;;;;;;;;;;;;;;;;;;;;;;;;;;;;;;;;;;;;;;;;;;;;;;;;;;;;;;;;;;;;;;;;;;;;;;;;;;;;;;;;;;;;;;;;;;;;;;;;;;;;;;;;;;;;;;;;;;;;;;;;;;;;;;;;;;;;;;64.4923281166228;32.438918532513;;;;;;;;;;;;;3.0687533508642;;;;;;;;;;;;;;;;;;;;
2009;[13787] SMITH D. J.(2009)  [GeoReM [4914] ];samp. SV43;;SOLOMON ISLAND ARC / SOLOMON ISLAND ARC - CENTRAL PROVINCE / SAVO;MBAZO;-9.17;159.83;-9.17;159.83;;;OUTCROP;;;SUBAQUATIC;VOLCANIC ROCK;BENMOREITE;;;;;;;;;;;;MINERAL / COMPONENT (INCL. GROUNDMASS);FELDSPAR;15-092;;RIM;PRIMARY;;;;;59.467;;;;;24.73;;;;;;;;;;0.259;;;7.142;;;0.024;0.147;;;;0.459;EMP (EPMA);;;7.14;;;;;;;;;;;;;;;;;;;;;;;;;;;;;;;;;;;;;;;;;;;;;;;;;;;;;;;;;;;;;;;;;;;;;;;;;;;;;;;;;;;;;;;;;;;;;;;;;;;;;;;;;;;;;;;;;;;;;;;;;;;;;;;;;;;;;;;;;;;;;;;;;;;;;;;;;;;;;;;;;;;;;;;;;;;;;;;;;;;;;;;;;;;;;;;;;;;;;;;;;;;;;;;;;;;;;;;;;;;;;;;;;;;;;;;;;;62.6937789410107;34.6537145158043;;;;;;;;;;;;;2.65250654318502;;;;;;;;;;;;;;;;;;;;
2009;[13787] SMITH D. J.(2009)  [GeoReM [4914] ];samp. SV43;;SOLOMON ISLAND ARC / SOLOMON ISLAND ARC - CENTRAL PROVINCE / SAVO;MBAZO;-9.17;159.83;-9.17;159.83;;;OUTCROP;;;SUBAQUATIC;VOLCANIC ROCK;BENMOREITE;;;;;;;;;;;;MINERAL / COMPONENT (INCL. GROUNDMASS);FELDSPAR;15-093;;CORE;PRIMARY;;;;;57.051;;;;;25.931;;;;;;;;;;0.304;;;8.498;;;0.015;0.131;;;;0.29;EMP (EPMA);;;6.307;;;;;;;;;;;;;;;;;;;;;;;;;;;;;;;;;;;;;;;;;;;;;;;;;;;;;;;;;;;;;;;;;;;;;;;;;;;;;;;;;;;;;;;;;;;;;;;;;;;;;;;;;;;;;;;;;;;;;;;;;;;;;;;;;;;;;;;;;;;;;;;;;;;;;;;;;;;;;;;;;;;;;;;;;;;;;;;;;;;;;;;;;;;;;;;;;;;;;;;;;;;;;;;;;;;;;;;;;;;;;;;;;;;;;;;;;;56.3428022158703;41.9522930210204;;;;;;;;;;;;;1.7049047631093;;;;;;;;;;;;;;;;;;;;
2009;[13787] SMITH D. J.(2009)  [GeoReM [4914] ];samp. SV43;;SOLOMON ISLAND ARC / SOLOMON ISLAND ARC - CENTRAL PROVINCE / SAVO;MBAZO;-9.17;159.83;-9.17;159.83;;;OUTCROP;;;SUBAQUATIC;VOLCANIC ROCK;BENMOREITE;;;;;;;;;;;;MINERAL / COMPONENT (INCL. GROUNDMASS);FELDSPAR;15-094;;;PRIMARY;;;;;52.738;;;;;29.189;;;;;;;;;;0.294;;;12.277;;;0;0.167;;;;0.159;EMP (EPMA);;;4.396;;;;;;;;;;;;;;;;;;;;;;;;;;;;;;;;;;;;;;;;;;;;;;;;;;;;;;;;;;;;;;;;;;;;;;;;;;;;;;;;;;;;;;;;;;;;;;;;;;;;;;;;;;;;;;;;;;;;;;;;;;;;;;;;;;;;;;;;;;;;;;;;;;;;;;;;;;;;;;;;;;;;;;;;;;;;;;;;;;;;;;;;;;;;;;;;;;;;;;;;;;;;;;;;;;;;;;;;;;;;;;;;;;;;;;;;;;38.9556527170518;60.1174266083698;;;;;;;;;;;;;0.926920674578389;;;;;;;;;;;;;;;;;;;;