Year;CITATION;SAMPLE NAME;UNIQUE_ID;LOCATION;LOCATION COMMENT;LATITUDE (MIN.);LONGITUDE (MIN.);LATITUDE (MAX.);LONGITUDE (MAX.);ELEVATION (MIN.);ELEVATION (MAX.);SAMPLING TECHNIQUE;DRILLING DEPTH (MIN.);DRILLING DEPTH (MAX.);LAND/SEA (SAMPLING);ROCK TYPE;ROCK NAME;ROCK TEXTURE;SAMPLE COMMENT;AGE (MIN.);AGE (MAX.);GEOLOGICAL AGE;GEOLOGICAL AGE PREFIX;ERUPTION DAY;ERUPTION MONTH;ERUPTION YEAR;ALTERATION;ALTERATION TYPE;TYPE OF MATERIAL;MINERAL / COMPONENT;SPOT (MINERAL);CRYSTAL;RIM / CORE (MINERAL GRAINS);PRIMARY/SECONDARY;INCLUSION TYPE;MINERAL (INCLUSION);HOSTMINERAL (INCLUSION);HEATING;SIO2(WT%);TIO2(WT%);ZRO2(WT%);HFO2(WT%);THO2(WT%);AL2O3(WT%);CR2O3(WT%);LA2O3(WT%);CE2O3(WT%);ND2O3(WT%);SM2O3(WT%);V2O3(WT%);NB2O5(WT%);FE2O3T(WT%);FE2O3(WT%);FEOT(WT%);FEO(WT%);FET(WT%);CAO(WT%);MGO(WT%);MNO(WT%);BAO(WT%);SRO(WT%);NIO(WT%);ZNO(WT%);RB2O(WT%);K2O(WT%);;;;NA2O(WT%);P2O5(WT%);AS2O5(WT%);H2O(WT%);H2OP(WT%);H2OM(WT%);CO2(WT%);C(WT%);F(WT%);CL(WT%);OH(WT%);SO3(WT%);S(WT%);LOI(WT%);TI(WT%);CA(WT%);K(WT%);LI(PPM);BE(PPM);B(PPM);F(PPM);P(PPM);S(PPM);CL(PPM);AR40(AT/G);;;;AR40(CCMSTP/G);;;;AR40(MOL/G);;;;AR40(PPB);K(PPM);SC(PPM);;;;TI(PPM);V(PPM);;;;CR(PPM);;;;CO(PPM);;;;NI(PPM);;;;CU(PPM);;;;ZN(PPM);;;;GA(PPM);;;;GE(PPM);AS(PPM);AS(PPB);SE(PPM);RB(PPM);;;;;;SR(PPM);;;;;;Y(PPM);;;;ZR(PPM);;;;NB(PPM);;;;MO(PPM);AG(PPM);CD(PPM);IN(PPM);SN(PPM);SB(PPM): altern. values or methods;;;;TE(PPM);CS(PPM): altern. values or methods;;;;BA(PPM): altern. values or methods;;;;LA(PPM): altern. values or methods;;;;CE(PPM): altern. values or methods;;;;PR(PPM);ND(PPM): altern. values or methods;;;;;;SM(PPM): altern. values or methods;;;;EU(PPM): altern. values or methods;;;;GD(PPM): altern. values or methods;;;;TB(PPM): altern. values or methods;;;;DY(PPM): altern. values or methods;;;;HO(PPM);ER(PPM): altern. values or methods;;;;TM(PPM);YB(PPM): altern. values or methods;;;;LU(PPM);HF(PPM);TA(PPM);W(PPM);RE(PPM);AU(PPM);HG(PPM);HG(PPB);TL(PPM);PB(PPM): altern. values or methods;;;;BI(PPM);PO210_ACT(DPM/G);RA226_ACT(DPM/G);TH(PPM): altern. values or methods;;;;U(PPM): altern. values or methods;;;;ND143_ND144;ND143_ND144_INI;EPSILON_ND;EPSILON_ND_INI;SM147_ND144;SR87_SR86;SR87_SR86_INI;EPSILON_SR_INI;RB87_SR86;PB206_PB204: altern. values or methods;;;;PB206_PB204_INI;PB207_PB204: altern. values or methods;;;;PB207_PB204_INI;PB207_PB206;PB208_PB204: altern. values or methods;;;;PB208_PB204_INI;PB208_PB206;HF176_HF177;LU176_HF177;AR38_AR36;AR40_AR36;AR40_AR36_INI;PB206_U238;PB207_U235;RA226_TH230_ACT;PA231_U235_ACT;TH230_TH232_ACT;TH230_U238_ACT;TH232_PB204;U234_U238_ACT;U235_PB204;U238_PB204;U238_TH232_ACT;D7LI(VS LSVEC);D13C(VS PDB);D18O(PER MIL);D18O(VS SMOW);D18O(VS VSMOW);D34S(VS VCDT);ALBITE(MOL%);ANORTHITE(MOL%);CA OLIVINE(MOL%);CHROMITE(MOL%);ENSTATITE(MOL%);FAYALITE(MOL%);FORSTERITE(MOL%);FERROSILITE(MOL%);HEMATITE(MOL%);HERCYNITE(MOL%);ILMENITE(MOL%);MAGNESIOFERRITE(MOL%);MONTICELLITE(MOL%);MAGNETITE(MOL%);ORTHOCLASE(MOL%);PICROCHROMITE(MOL%);SPINEL(MOL%);TEPHROITE(MOL%);ULVOSPINEL(MOL%);WOLLASTONITE(MOL%);AGE(KA): altern. values or methods;;;;;;AGE(MA): altern. values or methods;;;;;;AGE_PB207_U235(MA);AGE_PB206_U238(MA);
2009;[13787] SMITH D. J.(2009)  [GeoReM [4914] ];samp. SV12;96240;SOLOMON ISLAND ARC / SOLOMON ISLAND ARC - CENTRAL PROVINCE / SAVO;POGHOROVURAGHALA FAN;-9.17;159.83;-9.17;159.83;;;OUTCROP;;;SUBAQUATIC;VOLCANIC ROCK;BENMOREITE;;;;;;;;;;;;MINERAL / COMPONENT (INCL. GROUNDMASS);FELDSPAR;14-080;;;PRIMARY;;;;;59.516;;;;;25.005;;;;;;;;;;0.306;;;7.387;;;0.046;0.111;;;;0.596;EMP (EPMA);;;6.94;;;;;;;;;;;;;;;;;;;;;;;;;;;;;;;;;;;;;;;;;;;;;;;;;;;;;;;;;;;;;;;;;;;;;;;;;;;;;;;;;;;;;;;;;;;;;;;;;;;;;;;;;;;;;;;;;;;;;;;;;;;;;;;;;;;;;;;;;;;;;;;;;;;;;;;;;;;;;;;;;;;;;;;;;;;;;;;;;;;;;;;;;;;;;;;;;;;;;;;;;;;;;;;;;;;;;;;;;;;;;;;;;;;;;;;;;;60.8024613522306;35.7627417849847;;;;;;;;;;;;;3.43479686278466;;;;;;;;;;;;;;;;;;;;
2009;[13787] SMITH D. J.(2009)  [GeoReM [4914] ];samp. SV12;96240;SOLOMON ISLAND ARC / SOLOMON ISLAND ARC - CENTRAL PROVINCE / SAVO;POGHOROVURAGHALA FAN;-9.17;159.83;-9.17;159.83;;;OUTCROP;;;SUBAQUATIC;VOLCANIC ROCK;BENMOREITE;;;;;;;;;;;;MINERAL / COMPONENT (INCL. GROUNDMASS);FELDSPAR;14-081;;;PRIMARY;;;;;60.16;;;;;24.368;;;;;;;;;;0.398;;;6.844;;;0.035;0.054;;;;0.648;EMP (EPMA);;;7.252;;;;;;;;;;;;;;;;;;;;;;;;;;;;;;;;;;;;;;;;;;;;;;;;;;;;;;;;;;;;;;;;;;;;;;;;;;;;;;;;;;;;;;;;;;;;;;;;;;;;;;;;;;;;;;;;;;;;;;;;;;;;;;;;;;;;;;;;;;;;;;;;;;;;;;;;;;;;;;;;;;;;;;;;;;;;;;;;;;;;;;;;;;;;;;;;;;;;;;;;;;;;;;;;;;;;;;;;;;;;;;;;;;;;;;;;;;63.2784250703094;33.0002008838891;;;;;;;;;;;;;3.72137404580153;;;;;;;;;;;;;;;;;;;;
2009;[13787] SMITH D. J.(2009)  [GeoReM [4914] ];samp. SV12;96240;SOLOMON ISLAND ARC / SOLOMON ISLAND ARC - CENTRAL PROVINCE / SAVO;POGHOROVURAGHALA FAN;-9.17;159.83;-9.17;159.83;;;OUTCROP;;;SUBAQUATIC;VOLCANIC ROCK;BENMOREITE;;;;;;;;;;;;MINERAL / COMPONENT (INCL. GROUNDMASS);FELDSPAR;14-082;;;PRIMARY;;;;;56.194;;;;;27.28;;;;;;;;;;0.342;;;9.794;;;0.012;0.175;;;;0.357;EMP (EPMA);;;5.6;;;;;;;;;;;;;;;;;;;;;;;;;;;;;;;;;;;;;;;;;;;;;;;;;;;;;;;;;;;;;;;;;;;;;;;;;;;;;;;;;;;;;;;;;;;;;;;;;;;;;;;;;;;;;;;;;;;;;;;;;;;;;;;;;;;;;;;;;;;;;;;;;;;;;;;;;;;;;;;;;;;;;;;;;;;;;;;;;;;;;;;;;;;;;;;;;;;;;;;;;;;;;;;;;;;;;;;;;;;;;;;;;;;;;;;;;;49.7905612957275;48.1201289634688;;;;;;;;;;;;;2.08930974080374;;;;;;;;;;;;;;;;;;;;
2009;[13787] SMITH D. J.(2009)  [GeoReM [4914] ];samp. SV12;96240;SOLOMON ISLAND ARC / SOLOMON ISLAND ARC - CENTRAL PROVINCE / SAVO;POGHOROVURAGHALA FAN;-9.17;159.83;-9.17;159.83;;;OUTCROP;;;SUBAQUATIC;VOLCANIC ROCK;BENMOREITE;;;;;;;;;;;;MINERAL / COMPONENT (INCL. GROUNDMASS);FELDSPAR;14-084;;;PRIMARY;;;;;55.732;;;;;27.749;;;;;;;;;;0.257;;;10.136;;;0.041;0.167;;;;0.352;EMP (EPMA);;;5.52;;;;;;;;;;;;;;;;;;;;;;;;;;;;;;;;;;;;;;;;;;;;;;;;;;;;;;;;;;;;;;;;;;;;;;;;;;;;;;;;;;;;;;;;;;;;;;;;;;;;;;;;;;;;;;;;;;;;;;;;;;;;;;;;;;;;;;;;;;;;;;;;;;;;;;;;;;;;;;;;;;;;;;;;;;;;;;;;;;;;;;;;;;;;;;;;;;;;;;;;;;;;;;;;;;;;;;;;;;;;;;;;;;;;;;;;;;48.6220521984245;49.3368232954974;;;;;;;;;;;;;2.04112450607807;;;;;;;;;;;;;;;;;;;;
2009;[13787] SMITH D. J.(2009)  [GeoReM [4914] ];samp. SV12;96240;SOLOMON ISLAND ARC / SOLOMON ISLAND ARC - CENTRAL PROVINCE / SAVO;POGHOROVURAGHALA FAN;-9.17;159.83;-9.17;159.83;;;OUTCROP;;;SUBAQUATIC;VOLCANIC ROCK;BENMOREITE;;;;;;;;;;;;MINERAL / COMPONENT (INCL. GROUNDMASS);FELDSPAR;14-085;;;PRIMARY;;;;;51.111;;;;;31.054;;;;;;;;;;0.402;;;14.109;;;0.037;0.138;;;;0.144;EMP (EPMA);;;3.257;;;;;;;;;;;;;;;;;;;;;;;;;;;;;;;;;;;;;;;;;;;;;;;;;;;;;;;;;;;;;;;;;;;;;;;;;;;;;;;;;;;;;;;;;;;;;;;;;;;;;;;;;;;;;;;;;;;;;;;;;;;;;;;;;;;;;;;;;;;;;;;;;;;;;;;;;;;;;;;;;;;;;;;;;;;;;;;;;;;;;;;;;;;;;;;;;;;;;;;;;;;;;;;;;;;;;;;;;;;;;;;;;;;;;;;;;;29.2141403865717;69.9364191251271;;;;;;;;;;;;;0.849440488301119;;;;;;;;;;;;;;;;;;;;
2009;[13787] SMITH D. J.(2009)  [GeoReM [4914] ];samp. SV12;96240;SOLOMON ISLAND ARC / SOLOMON ISLAND ARC - CENTRAL PROVINCE / SAVO;POGHOROVURAGHALA FAN;-9.17;159.83;-9.17;159.83;;;OUTCROP;;;SUBAQUATIC;VOLCANIC ROCK;BENMOREITE;;;;;;;;;;;;MINERAL / COMPONENT (INCL. GROUNDMASS);FELDSPAR;14-086;;;PRIMARY;;;;;56.16;;;;;27.613;;;;;;;;;;0.306;;;10.095;;;0.036;0.137;;;;0.331;EMP (EPMA);;;5.617;;;;;;;;;;;;;;;;;;;;;;;;;;;;;;;;;;;;;;;;;;;;;;;;;;;;;;;;;;;;;;;;;;;;;;;;;;;;;;;;;;;;;;;;;;;;;;;;;;;;;;;;;;;;;;;;;;;;;;;;;;;;;;;;;;;;;;;;;;;;;;;;;;;;;;;;;;;;;;;;;;;;;;;;;;;;;;;;;;;;;;;;;;;;;;;;;;;;;;;;;;;;;;;;;;;;;;;;;;;;;;;;;;;;;;;;;;49.2146860000503;48.8779433568718;;;;;;;;;;;;;1.90737064307793;;;;;;;;;;;;;;;;;;;;
2009;[13787] SMITH D. J.(2009)  [GeoReM [4914] ];samp. SV12;96240;SOLOMON ISLAND ARC / SOLOMON ISLAND ARC - CENTRAL PROVINCE / SAVO;POGHOROVURAGHALA FAN;-9.17;159.83;-9.17;159.83;;;OUTCROP;;;SUBAQUATIC;VOLCANIC ROCK;BENMOREITE;;;;;;;;;;;;MINERAL / COMPONENT (INCL. GROUNDMASS);FELDSPAR;14-087;;;PRIMARY;;;;;54.918;;;;;28.278;;;;;;;;;;0.312;;;10.793;;;0.02;0.146;;;;0.295;EMP (EPMA);;;5.242;;;;;;;;;;;;;;;;;;;;;;;;;;;;;;;;;;;;;;;;;;;;;;;;;;;;;;;;;;;;;;;;;;;;;;;;;;;;;;;;;;;;;;;;;;;;;;;;;;;;;;;;;;;;;;;;;;;;;;;;;;;;;;;;;;;;;;;;;;;;;;;;;;;;;;;;;;;;;;;;;;;;;;;;;;;;;;;;;;;;;;;;;;;;;;;;;;;;;;;;;;;;;;;;;;;;;;;;;;;;;;;;;;;;;;;;;;45.980980980981;52.3173173173173;;;;;;;;;;;;;1.7017017017017;;;;;;;;;;;;;;;;;;;;
2009;[13787] SMITH D. J.(2009)  [GeoReM [4914] ];samp. SV12;96240;SOLOMON ISLAND ARC / SOLOMON ISLAND ARC - CENTRAL PROVINCE / SAVO;POGHOROVURAGHALA FAN;-9.17;159.83;-9.17;159.83;;;OUTCROP;;;SUBAQUATIC;VOLCANIC ROCK;BENMOREITE;;;;;;;;;;;;MINERAL / COMPONENT (INCL. GROUNDMASS);FELDSPAR;14-088;;;PRIMARY;;;;;58.141;;;;;26.203;;;;;;;;;;0.241;;;8.247;;;0.048;0.121;;;;0.467;EMP (EPMA);;;6.384;;;;;;;;;;;;;;;;;;;;;;;;;;;;;;;;;;;;;;;;;;;;;;;;;;;;;;;;;;;;;;;;;;;;;;;;;;;;;;;;;;;;;;;;;;;;;;;;;;;;;;;;;;;;;;;;;;;;;;;;;;;;;;;;;;;;;;;;;;;;;;;;;;;;;;;;;;;;;;;;;;;;;;;;;;;;;;;;;;;;;;;;;;;;;;;;;;;;;;;;;;;;;;;;;;;;;;;;;;;;;;;;;;;;;;;;;;56.7539962208263;40.5137633420152;;;;;;;;;;;;;2.73224043715847;;;;;;;;;;;;;;;;;;;;
2009;[13787] SMITH D. J.(2009)  [GeoReM [4914] ];samp. SV12;96240;SOLOMON ISLAND ARC / SOLOMON ISLAND ARC - CENTRAL PROVINCE / SAVO;POGHOROVURAGHALA FAN;-9.17;159.83;-9.17;159.83;;;OUTCROP;;;SUBAQUATIC;VOLCANIC ROCK;BENMOREITE;;;;;;;;;;;;MINERAL / COMPONENT (INCL. GROUNDMASS);FELDSPAR;14-089;;;PRIMARY;;;;;59.667;;;;;25.02;;;;;;;;;;0.129;;;6.997;;;0.043;0.311;;;;0.656;EMP (EPMA);;;7.037;;;;;;;;;;;;;;;;;;;;;;;;;;;;;;;;;;;;;;;;;;;;;;;;;;;;;;;;;;;;;;;;;;;;;;;;;;;;;;;;;;;;;;;;;;;;;;;;;;;;;;;;;;;;;;;;;;;;;;;;;;;;;;;;;;;;;;;;;;;;;;;;;;;;;;;;;;;;;;;;;;;;;;;;;;;;;;;;;;;;;;;;;;;;;;;;;;;;;;;;;;;;;;;;;;;;;;;;;;;;;;;;;;;;;;;;;;62.0819259974096;34.111283236407;;;;;;;;;;;;;3.80679076618331;;;;;;;;;;;;;;;;;;;;
2009;[13787] SMITH D. J.(2009)  [GeoReM [4914] ];samp. SV12;96240;SOLOMON ISLAND ARC / SOLOMON ISLAND ARC - CENTRAL PROVINCE / SAVO;POGHOROVURAGHALA FAN;-9.17;159.83;-9.17;159.83;;;OUTCROP;;;SUBAQUATIC;VOLCANIC ROCK;BENMOREITE;;;;;;;;;;;;MINERAL / COMPONENT (INCL. GROUNDMASS);FELDSPAR;14-090;;;PRIMARY;;;;;58.801;;;;;25.59;;;;;;;;;;0.147;;;7.542;;;0.021;0.296;;;;0.567;EMP (EPMA);;;6.661;;;;;;;;;;;;;;;;;;;;;;;;;;;;;;;;;;;;;;;;;;;;;;;;;;;;;;;;;;;;;;;;;;;;;;;;;;;;;;;;;;;;;;;;;;;;;;;;;;;;;;;;;;;;;;;;;;;;;;;;;;;;;;;;;;;;;;;;;;;;;;;;;;;;;;;;;;;;;;;;;;;;;;;;;;;;;;;;;;;;;;;;;;;;;;;;;;;;;;;;;;;;;;;;;;;;;;;;;;;;;;;;;;;;;;;;;;59.464098163281;37.2057278991726;;;;;;;;;;;;;3.33017393754643;;;;;;;;;;;;;;;;;;;;
2009;[13787] SMITH D. J.(2009)  [GeoReM [4914] ];samp. SV12;96240;SOLOMON ISLAND ARC / SOLOMON ISLAND ARC - CENTRAL PROVINCE / SAVO;POGHOROVURAGHALA FAN;-9.17;159.83;-9.17;159.83;;;OUTCROP;;;SUBAQUATIC;VOLCANIC ROCK;BENMOREITE;;;;;;;;;;;;MINERAL / COMPONENT (INCL. GROUNDMASS);FELDSPAR;14-091;;;PRIMARY;;;;;60.115;;;;;24.359;;;;;;;;;;0.136;;;6.27;;;0.035;0.163;;;;0.757;EMP (EPMA);;;7.29;;;;;;;;;;;;;;;;;;;;;;;;;;;;;;;;;;;;;;;;;;;;;;;;;;;;;;;;;;;;;;;;;;;;;;;;;;;;;;;;;;;;;;;;;;;;;;;;;;;;;;;;;;;;;;;;;;;;;;;;;;;;;;;;;;;;;;;;;;;;;;;;;;;;;;;;;;;;;;;;;;;;;;;;;;;;;;;;;;;;;;;;;;;;;;;;;;;;;;;;;;;;;;;;;;;;;;;;;;;;;;;;;;;;;;;;;;64.7840700753718;30.7903850071298;;;;;;;;;;;;;4.42554491749847;;;;;;;;;;;;;;;;;;;;
2009;[13787] SMITH D. J.(2009)  [GeoReM [4914] ];samp. SV12;96240;SOLOMON ISLAND ARC / SOLOMON ISLAND ARC - CENTRAL PROVINCE / SAVO;POGHOROVURAGHALA FAN;-9.17;159.83;-9.17;159.83;;;OUTCROP;;;SUBAQUATIC;VOLCANIC ROCK;BENMOREITE;;;;;;;;;;;;MINERAL / COMPONENT (INCL. GROUNDMASS);FELDSPAR;14-092;;;PRIMARY;;;;;62.292;;;;;23.226;;;;;;;;;;0.174;;;5.037;;;0.051;0.095;;;;0.951;EMP (EPMA);;;7.978;;;;;;;;;;;;;;;;;;;;;;;;;;;;;;;;;;;;;;;;;;;;;;;;;;;;;;;;;;;;;;;;;;;;;;;;;;;;;;;;;;;;;;;;;;;;;;;;;;;;;;;;;;;;;;;;;;;;;;;;;;;;;;;;;;;;;;;;;;;;;;;;;;;;;;;;;;;;;;;;;;;;;;;;;;;;;;;;;;;;;;;;;;;;;;;;;;;;;;;;;;;;;;;;;;;;;;;;;;;;;;;;;;;;;;;;;;70.0602455578434;24.4439360431124;;;;;;;;;;;;;5.49581839904421;;;;;;;;;;;;;;;;;;;;
2009;[13787] SMITH D. J.(2009)  [GeoReM [4914] ];samp. SV12;96240;SOLOMON ISLAND ARC / SOLOMON ISLAND ARC - CENTRAL PROVINCE / SAVO;POGHOROVURAGHALA FAN;-9.17;159.83;-9.17;159.83;;;OUTCROP;;;SUBAQUATIC;VOLCANIC ROCK;BENMOREITE;;;;;;;;;;;;MINERAL / COMPONENT (INCL. GROUNDMASS);FELDSPAR;14-093;;;PRIMARY;;;;;57.212;;;;;26.248;;;;;;;;;;0.425;;;8.762;;;0.032;0.109;;;;0.432;EMP (EPMA);;;6.202;;;;;;;;;;;;;;;;;;;;;;;;;;;;;;;;;;;;;;;;;;;;;;;;;;;;;;;;;;;;;;;;;;;;;;;;;;;;;;;;;;;;;;;;;;;;;;;;;;;;;;;;;;;;;;;;;;;;;;;;;;;;;;;;;;;;;;;;;;;;;;;;;;;;;;;;;;;;;;;;;;;;;;;;;;;;;;;;;;;;;;;;;;;;;;;;;;;;;;;;;;;;;;;;;;;;;;;;;;;;;;;;;;;;;;;;;;54.7488986784141;42.7413467589679;;;;;;;;;;;;;2.509754562618;;;;;;;;;;;;;;;;;;;;
2009;[13787] SMITH D. J.(2009)  [GeoReM [4914] ];samp. SV12;96240;SOLOMON ISLAND ARC / SOLOMON ISLAND ARC - CENTRAL PROVINCE / SAVO;POGHOROVURAGHALA FAN;-9.17;159.83;-9.17;159.83;;;OUTCROP;;;SUBAQUATIC;VOLCANIC ROCK;BENMOREITE;;;;;;;;;;;;MINERAL / COMPONENT (INCL. GROUNDMASS);FELDSPAR;14-095;;;PRIMARY;;;;;56.236;;;;;26.913;;;;;;;;;;0.494;;;9.471;;;0.023;0.134;;;;0.458;EMP (EPMA);;;5.831;;;;;;;;;;;;;;;;;;;;;;;;;;;;;;;;;;;;;;;;;;;;;;;;;;;;;;;;;;;;;;;;;;;;;;;;;;;;;;;;;;;;;;;;;;;;;;;;;;;;;;;;;;;;;;;;;;;;;;;;;;;;;;;;;;;;;;;;;;;;;;;;;;;;;;;;;;;;;;;;;;;;;;;;;;;;;;;;;;;;;;;;;;;;;;;;;;;;;;;;;;;;;;;;;;;;;;;;;;;;;;;;;;;;;;;;;;51.3024747019337;46.0474902314397;;;;;;;;;;;;;2.65003506662659;;;;;;;;;;;;;;;;;;;;
2009;[13787] SMITH D. J.(2009)  [GeoReM [4914] ];samp. SV12;96240;SOLOMON ISLAND ARC / SOLOMON ISLAND ARC - CENTRAL PROVINCE / SAVO;POGHOROVURAGHALA FAN;-9.17;159.83;-9.17;159.83;;;OUTCROP;;;SUBAQUATIC;VOLCANIC ROCK;BENMOREITE;;;;;;;;;;;;MINERAL / COMPONENT (INCL. GROUNDMASS);FELDSPAR;14-096;;;PRIMARY;;;;;49.088;;;;;31.869;;;;;;;;;;0.397;;;15.155;;;0;0.121;;;;0.128;EMP (EPMA);;;2.816;;;;;;;;;;;;;;;;;;;;;;;;;;;;;;;;;;;;;;;;;;;;;;;;;;;;;;;;;;;;;;;;;;;;;;;;;;;;;;;;;;;;;;;;;;;;;;;;;;;;;;;;;;;;;;;;;;;;;;;;;;;;;;;;;;;;;;;;;;;;;;;;;;;;;;;;;;;;;;;;;;;;;;;;;;;;;;;;;;;;;;;;;;;;;;;;;;;;;;;;;;;;;;;;;;;;;;;;;;;;;;;;;;;;;;;;;;24.9751318014523;74.2788222421168;;;;;;;;;;;;;0.746045956430916;;;;;;;;;;;;;;;;;;;;
2009;[13787] SMITH D. J.(2009)  [GeoReM [4914] ];samp. SV12;96240;SOLOMON ISLAND ARC / SOLOMON ISLAND ARC - CENTRAL PROVINCE / SAVO;POGHOROVURAGHALA FAN;-9.17;159.83;-9.17;159.83;;;OUTCROP;;;SUBAQUATIC;VOLCANIC ROCK;BENMOREITE;;;;;;;;;;;;MINERAL / COMPONENT (INCL. GROUNDMASS);FELDSPAR;14-097;;;PRIMARY;;;;;55.085;;;;;28.01;;;;;;;;;;0.315;;;10.575;;;0.027;0.169;;;;0.353;EMP (EPMA);;;5.229;;;;;;;;;;;;;;;;;;;;;;;;;;;;;;;;;;;;;;;;;;;;;;;;;;;;;;;;;;;;;;;;;;;;;;;;;;;;;;;;;;;;;;;;;;;;;;;;;;;;;;;;;;;;;;;;;;;;;;;;;;;;;;;;;;;;;;;;;;;;;;;;;;;;;;;;;;;;;;;;;;;;;;;;;;;;;;;;;;;;;;;;;;;;;;;;;;;;;;;;;;;;;;;;;;;;;;;;;;;;;;;;;;;;;;;;;;46.2532429913604;51.6913931639002;;;;;;;;;;;;;2.05536384473943;;;;;;;;;;;;;;;;;;;;
2009;[13787] SMITH D. J.(2009)  [GeoReM [4914] ];samp. SV12;96240;SOLOMON ISLAND ARC / SOLOMON ISLAND ARC - CENTRAL PROVINCE / SAVO;POGHOROVURAGHALA FAN;-9.17;159.83;-9.17;159.83;;;OUTCROP;;;SUBAQUATIC;VOLCANIC ROCK;BENMOREITE;;;;;;;;;;;;MINERAL / COMPONENT (INCL. GROUNDMASS);FELDSPAR;14-098;;;PRIMARY;;;;;56.712;;;;;26.453;;;;;;;;;;0.319;;;8.954;;;0.028;0.147;;;;0.441;EMP (EPMA);;;6.141;;;;;;;;;;;;;;;;;;;;;;;;;;;;;;;;;;;;;;;;;;;;;;;;;;;;;;;;;;;;;;;;;;;;;;;;;;;;;;;;;;;;;;;;;;;;;;;;;;;;;;;;;;;;;;;;;;;;;;;;;;;;;;;;;;;;;;;;;;;;;;;;;;;;;;;;;;;;;;;;;;;;;;;;;;;;;;;;;;;;;;;;;;;;;;;;;;;;;;;;;;;;;;;;;;;;;;;;;;;;;;;;;;;;;;;;;;53.9670247314514;43.4823882088434;;;;;;;;;;;;;2.55058705970522;;;;;;;;;;;;;;;;;;;;
2009;[13787] SMITH D. J.(2009)  [GeoReM [4914] ];samp. SV12;96240;SOLOMON ISLAND ARC / SOLOMON ISLAND ARC - CENTRAL PROVINCE / SAVO;POGHOROVURAGHALA FAN;-9.17;159.83;-9.17;159.83;;;OUTCROP;;;SUBAQUATIC;VOLCANIC ROCK;BENMOREITE;;;;;;;;;;;;MINERAL / COMPONENT (INCL. GROUNDMASS);FELDSPAR;14-099;;;PRIMARY;;;;;55.856;;;;;27.576;;;;;;;;;;0.134;;;10.074;;;0.03;0.258;;;;0.326;EMP (EPMA);;;5.581;;;;;;;;;;;;;;;;;;;;;;;;;;;;;;;;;;;;;;;;;;;;;;;;;;;;;;;;;;;;;;;;;;;;;;;;;;;;;;;;;;;;;;;;;;;;;;;;;;;;;;;;;;;;;;;;;;;;;;;;;;;;;;;;;;;;;;;;;;;;;;;;;;;;;;;;;;;;;;;;;;;;;;;;;;;;;;;;;;;;;;;;;;;;;;;;;;;;;;;;;;;;;;;;;;;;;;;;;;;;;;;;;;;;;;;;;;49.1180018092271;48.994873856669;;;;;;;;;;;;;1.88712433410393;;;;;;;;;;;;;;;;;;;;
2009;[13787] SMITH D. J.(2009)  [GeoReM [4914] ];samp. SV12;96240;SOLOMON ISLAND ARC / SOLOMON ISLAND ARC - CENTRAL PROVINCE / SAVO;POGHOROVURAGHALA FAN;-9.17;159.83;-9.17;159.83;;;OUTCROP;;;SUBAQUATIC;VOLCANIC ROCK;BENMOREITE;;;;;;;;;;;;MINERAL / COMPONENT (INCL. GROUNDMASS);FELDSPAR;14-100;;;PRIMARY;;;;;54.825;;;;;28.159;;;;;;;;;;0.197;;;10.545;;;0.009;0.305;;;;0.273;EMP (EPMA);;;5.316;;;;;;;;;;;;;;;;;;;;;;;;;;;;;;;;;;;;;;;;;;;;;;;;;;;;;;;;;;;;;;;;;;;;;;;;;;;;;;;;;;;;;;;;;;;;;;;;;;;;;;;;;;;;;;;;;;;;;;;;;;;;;;;;;;;;;;;;;;;;;;;;;;;;;;;;;;;;;;;;;;;;;;;;;;;;;;;;;;;;;;;;;;;;;;;;;;;;;;;;;;;;;;;;;;;;;;;;;;;;;;;;;;;;;;;;;;46.9492291467885;51.4638678250389;;;;;;;;;;;;;1.58690302817255;;;;;;;;;;;;;;;;;;;;
2009;[13787] SMITH D. J.(2009)  [GeoReM [4914] ];samp. SV12;96240;SOLOMON ISLAND ARC / SOLOMON ISLAND ARC - CENTRAL PROVINCE / SAVO;POGHOROVURAGHALA FAN;-9.17;159.83;-9.17;159.83;;;OUTCROP;;;SUBAQUATIC;VOLCANIC ROCK;BENMOREITE;;;;;;;;;;;;MINERAL / COMPONENT (INCL. GROUNDMASS);FELDSPAR;14-101;;;PRIMARY;;;;;56.825;;;;;27.022;;;;;;;;;;0.158;;;9.244;;;0.042;0.255;;;;0.41;EMP (EPMA);;;5.98;;;;;;;;;;;;;;;;;;;;;;;;;;;;;;;;;;;;;;;;;;;;;;;;;;;;;;;;;;;;;;;;;;;;;;;;;;;;;;;;;;;;;;;;;;;;;;;;;;;;;;;;;;;;;;;;;;;;;;;;;;;;;;;;;;;;;;;;;;;;;;;;;;;;;;;;;;;;;;;;;;;;;;;;;;;;;;;;;;;;;;;;;;;;;;;;;;;;;;;;;;;;;;;;;;;;;;;;;;;;;;;;;;;;;;;;;;52.6498915838838;44.9750390802279;;;;;;;;;;;;;2.37506933588826;;;;;;;;;;;;;;;;;;;;
2009;[13787] SMITH D. J.(2009)  [GeoReM [4914] ];samp. SV12;96240;SOLOMON ISLAND ARC / SOLOMON ISLAND ARC - CENTRAL PROVINCE / SAVO;POGHOROVURAGHALA FAN;-9.17;159.83;-9.17;159.83;;;OUTCROP;;;SUBAQUATIC;VOLCANIC ROCK;BENMOREITE;;;;;;;;;;;;MINERAL / COMPONENT (INCL. GROUNDMASS);FELDSPAR;14-102;;;PRIMARY;;;;;60.465;;;;;24.64;;;;;;;;;;0.201;;;6.59;;;0.047;0.213;;;;0.758;EMP (EPMA);;;7.152;;;;;;;;;;;;;;;;;;;;;;;;;;;;;;;;;;;;;;;;;;;;;;;;;;;;;;;;;;;;;;;;;;;;;;;;;;;;;;;;;;;;;;;;;;;;;;;;;;;;;;;;;;;;;;;;;;;;;;;;;;;;;;;;;;;;;;;;;;;;;;;;;;;;;;;;;;;;;;;;;;;;;;;;;;;;;;;;;;;;;;;;;;;;;;;;;;;;;;;;;;;;;;;;;;;;;;;;;;;;;;;;;;;;;;;;;;63.3351244850439;32.2484071543717;;;;;;;;;;;;;4.41646836058443;;;;;;;;;;;;;;;;;;;;
2009;[13787] SMITH D. J.(2009)  [GeoReM [4914] ];samp. SV12;96240;SOLOMON ISLAND ARC / SOLOMON ISLAND ARC - CENTRAL PROVINCE / SAVO;POGHOROVURAGHALA FAN;-9.17;159.83;-9.17;159.83;;;OUTCROP;;;SUBAQUATIC;VOLCANIC ROCK;BENMOREITE;;;;;;;;;;;;MINERAL / COMPONENT (INCL. GROUNDMASS);FELDSPAR;14-103;;;PRIMARY;;;;;59.303;;;;;25.529;;;;;;;;;;0.224;;;7.578;;;0.069;0.178;;;;0.592;EMP (EPMA);;;6.851;;;;;;;;;;;;;;;;;;;;;;;;;;;;;;;;;;;;;;;;;;;;;;;;;;;;;;;;;;;;;;;;;;;;;;;;;;;;;;;;;;;;;;;;;;;;;;;;;;;;;;;;;;;;;;;;;;;;;;;;;;;;;;;;;;;;;;;;;;;;;;;;;;;;;;;;;;;;;;;;;;;;;;;;;;;;;;;;;;;;;;;;;;;;;;;;;;;;;;;;;;;;;;;;;;;;;;;;;;;;;;;;;;;;;;;;;;59.9479416744586;36.6429961335321;;;;;;;;;;;;;3.4090621920093;;;;;;;;;;;;;;;;;;;;
2009;[13787] SMITH D. J.(2009)  [GeoReM [4914] ];samp. SV12;96240;SOLOMON ISLAND ARC / SOLOMON ISLAND ARC - CENTRAL PROVINCE / SAVO;POGHOROVURAGHALA FAN;-9.17;159.83;-9.17;159.83;;;OUTCROP;;;SUBAQUATIC;VOLCANIC ROCK;BENMOREITE;;;;;;;;;;;;MINERAL / COMPONENT (INCL. GROUNDMASS);FELDSPAR;14-104;;;PRIMARY;;;;;52.411;;;;;29.897;;;;;;;;;;0.248;;;12.925;;;0.019;0.212;;;;0.178;EMP (EPMA);;;4.088;;;;;;;;;;;;;;;;;;;;;;;;;;;;;;;;;;;;;;;;;;;;;;;;;;;;;;;;;;;;;;;;;;;;;;;;;;;;;;;;;;;;;;;;;;;;;;;;;;;;;;;;;;;;;;;;;;;;;;;;;;;;;;;;;;;;;;;;;;;;;;;;;;;;;;;;;;;;;;;;;;;;;;;;;;;;;;;;;;;;;;;;;;;;;;;;;;;;;;;;;;;;;;;;;;;;;;;;;;;;;;;;;;;;;;;;;;36.0262881703233;62.9416762456894;;;;;;;;;;;;;1.03203558398721;;;;;;;;;;;;;;;;;;;;