Year;CITATION;SAMPLE NAME;UNIQUE_ID;LOCATION;LOCATION COMMENT;LATITUDE (MIN.);LONGITUDE (MIN.);LATITUDE (MAX.);LONGITUDE (MAX.);ELEVATION (MIN.);ELEVATION (MAX.);SAMPLING TECHNIQUE;DRILLING DEPTH (MIN.);DRILLING DEPTH (MAX.);LAND/SEA (SAMPLING);ROCK TYPE;ROCK NAME;ROCK TEXTURE;SAMPLE COMMENT;AGE (MIN.);AGE (MAX.);GEOLOGICAL AGE;GEOLOGICAL AGE PREFIX;ERUPTION DAY;ERUPTION MONTH;ERUPTION YEAR;ALTERATION;ALTERATION TYPE;TYPE OF MATERIAL;MINERAL / COMPONENT;SPOT (MINERAL);CRYSTAL;RIM / CORE (MINERAL GRAINS);PRIMARY/SECONDARY;INCLUSION TYPE;MINERAL (INCLUSION);HOSTMINERAL (INCLUSION);HEATING;SIO2(WT%);TIO2(WT%);ZRO2(WT%);HFO2(WT%);THO2(WT%);AL2O3(WT%);CR2O3(WT%);LA2O3(WT%);CE2O3(WT%);ND2O3(WT%);SM2O3(WT%);V2O3(WT%);NB2O5(WT%);FE2O3T(WT%);FE2O3(WT%);FEOT(WT%);FEO(WT%);FET(WT%);CAO(WT%);MGO(WT%);MNO(WT%);BAO(WT%);SRO(WT%);NIO(WT%);ZNO(WT%);RB2O(WT%);K2O(WT%);;;;NA2O(WT%);P2O5(WT%);AS2O5(WT%);H2O(WT%);H2OP(WT%);H2OM(WT%);CO2(WT%);C(WT%);F(WT%);CL(WT%);OH(WT%);SO3(WT%);S(WT%);LOI(WT%);TI(WT%);CA(WT%);K(WT%);LI(PPM);BE(PPM);B(PPM);F(PPM);P(PPM);S(PPM);CL(PPM);AR40(AT/G);;;;AR40(CCMSTP/G);;;;AR40(MOL/G);;;;AR40(PPB);K(PPM);SC(PPM);;;;TI(PPM);V(PPM);;;;CR(PPM);;;;CO(PPM);;;;NI(PPM);;;;CU(PPM);;;;ZN(PPM);;;;GA(PPM);;;;GE(PPM);AS(PPM);AS(PPB);SE(PPM);RB(PPM);;;;;;SR(PPM);;;;;;Y(PPM);;;;ZR(PPM);;;;NB(PPM);;;;MO(PPM);AG(PPM);CD(PPM);IN(PPM);SN(PPM);SB(PPM): altern. values or methods;;;;TE(PPM);CS(PPM): altern. values or methods;;;;BA(PPM): altern. values or methods;;;;LA(PPM): altern. values or methods;;;;CE(PPM): altern. values or methods;;;;PR(PPM);ND(PPM): altern. values or methods;;;;;;SM(PPM): altern. values or methods;;;;EU(PPM): altern. values or methods;;;;GD(PPM): altern. values or methods;;;;TB(PPM): altern. values or methods;;;;DY(PPM): altern. values or methods;;;;HO(PPM);ER(PPM): altern. values or methods;;;;TM(PPM);YB(PPM): altern. values or methods;;;;LU(PPM);HF(PPM);TA(PPM);W(PPM);RE(PPM);AU(PPM);HG(PPM);HG(PPB);TL(PPM);PB(PPM): altern. values or methods;;;;BI(PPM);PO210_ACT(DPM/G);RA226_ACT(DPM/G);TH(PPM): altern. values or methods;;;;U(PPM): altern. values or methods;;;;ND143_ND144;ND143_ND144_INI;EPSILON_ND;EPSILON_ND_INI;SM147_ND144;SR87_SR86;SR87_SR86_INI;EPSILON_SR_INI;RB87_SR86;PB206_PB204: altern. values or methods;;;;PB206_PB204_INI;PB207_PB204: altern. values or methods;;;;PB207_PB204_INI;PB207_PB206;PB208_PB204: altern. values or methods;;;;PB208_PB204_INI;PB208_PB206;HF176_HF177;LU176_HF177;AR38_AR36;AR40_AR36;AR40_AR36_INI;PB206_U238;PB207_U235;RA226_TH230_ACT;PA231_U235_ACT;TH230_TH232_ACT;TH230_U238_ACT;TH232_PB204;U234_U238_ACT;U235_PB204;U238_PB204;U238_TH232_ACT;D7LI(VS LSVEC);D13C(VS PDB);D18O(PER MIL);D18O(VS SMOW);D18O(VS VSMOW);D34S(VS VCDT);ALBITE(MOL%);ANORTHITE(MOL%);CA OLIVINE(MOL%);CHROMITE(MOL%);ENSTATITE(MOL%);FAYALITE(MOL%);FORSTERITE(MOL%);FERROSILITE(MOL%);HEMATITE(MOL%);HERCYNITE(MOL%);ILMENITE(MOL%);MAGNESIOFERRITE(MOL%);MONTICELLITE(MOL%);MAGNETITE(MOL%);ORTHOCLASE(MOL%);PICROCHROMITE(MOL%);SPINEL(MOL%);TEPHROITE(MOL%);ULVOSPINEL(MOL%);WOLLASTONITE(MOL%);AGE(KA): altern. values or methods;;;;;;AGE(MA): altern. values or methods;;;;;;AGE_PB207_U235(MA);AGE_PB206_U238(MA);
2010;[14264] NICOTRA E. (2010);samp. EL85;;ETNA/SICILY / ELLITTICO-MONGIBELLO TRANSITION SEQUENCE;PIANO DELLE CONCAZZE AREA, BETWEEN PIZZI DE NERI AND THE NORTH EAST CRATER;37.73;15;37.73;15;2790;2790;OUTCROP;;;SUBAERIAL;VOLCANIC ROCK;BENMOREITE;MESOPHYRIC, SERIATE;LAVA FLOW AT THE BOTTOM;15000;15000;PLEISTOCENE;;;;;;;MINERAL / COMPONENT (INCL. GROUNDMASS);AMORPHOUS SI-RICH PHASE;;;;PRIMARY;;;;;93.9379;0.008;;;;0.2671;0.0132;;;;;;;;;0;;;0.2023;0.0471;0.0595;;;;;;0.019;EMP (EPMA);;;0.0247;0;;;;;;;0.0733;0.0306;;;;;;;;;;;;;;;;;;;;;;;;;;;;;;;;;;;;;;;;;;;;;;;;;;;;;;;;;;;;;;;;;;;;;;;;;;;;;;;;;;;;;;;;;;;;;;;;;;;;;;;;;;;;;;;;;;;;;;;;;;;;;;;;;;;;;;;;;;;;;;;;;;;;;;;;;;;;;;;;;;;;;;;;;;;;;;;;;;;;;;;;;;;;;;;;;;;;;;;;;;;;;;;;;;;;;;;;;;;;;;;;;;;;;;;;;;;;;;;;;;;;;;;;;;;;;;;;;;;
2010;[14264] NICOTRA E. (2010);samp. EL85;;ETNA/SICILY / ELLITTICO-MONGIBELLO TRANSITION SEQUENCE;PIANO DELLE CONCAZZE AREA, BETWEEN PIZZI DE NERI AND THE NORTH EAST CRATER;37.73;15;37.73;15;2790;2790;OUTCROP;;;SUBAERIAL;VOLCANIC ROCK;BENMOREITE;MESOPHYRIC, SERIATE;LAVA FLOW AT THE BOTTOM;15000;15000;PLEISTOCENE;;;;;;;MINERAL / COMPONENT (INCL. GROUNDMASS);PHLOGOPITE;;;;PRIMARY;;;;;40.8;4.23;;;;10.9;0;;;;;;;;;8.51;;;0.07;19.8;0.12;;;;;;8.46;EMP (EPMA);;;1.05;;;;;;;;6;0.17;;;;;;;;;;;;;;;;;;;;;;;;;;;;;;;;;;;;;;;;;;;;;;;;;;;;;;;;;;;;;;;;;;;;;;;;;;;;;;;;;;;;;;;;;;;;;;;;;;;;;;;;;;;;;;;;;;;;;;;;;;;;;;;;;;;;;;;;;;;;;;;;;;;;;;;;;;;;;;;;;;;;;;;;;;;;;;;;;;;;;;;;;;;;;;;;;;;;;;;;;;;;;;;;;;;;;;;;;;;;;;;;;;;;;;;;;;;;;;;;;;;;;;;;;;;;;;;;;;;
2010;[14264] NICOTRA E. (2010);samp. EL85;;ETNA/SICILY / ELLITTICO-MONGIBELLO TRANSITION SEQUENCE;PIANO DELLE CONCAZZE AREA, BETWEEN PIZZI DE NERI AND THE NORTH EAST CRATER;37.73;15;37.73;15;2790;2790;OUTCROP;;;SUBAERIAL;VOLCANIC ROCK;BENMOREITE;MESOPHYRIC, SERIATE;LAVA FLOW AT THE BOTTOM;15000;15000;PLEISTOCENE;;;;;;;MINERAL / COMPONENT (INCL. GROUNDMASS);PHLOGOPITE;;;;PRIMARY;;;;;41.6234;3.9736;;;;10.94;0;;;;;;;;;8.8277;;;0.0096;20.5454;0.0927;;;;;;8.7924;EMP (EPMA);;;1.1073;;;;;;;;5.6409;0.0926;;;;;;;;;;;;;;;;;;;;;;;;;;;;;;;;;;;;;;;;;;;;;;;;;;;;;;;;;;;;;;;;;;;;;;;;;;;;;;;;;;;;;;;;;;;;;;;;;;;;;;;;;;;;;;;;;;;;;;;;;;;;;;;;;;;;;;;;;;;;;;;;;;;;;;;;;;;;;;;;;;;;;;;;;;;;;;;;;;;;;;;;;;;;;;;;;;;;;;;;;;;;;;;;;;;;;;;;;;;;;;;;;;;;;;;;;;;;;;;;;;;;;;;;;;;;;;;;;;;
2010;[14264] NICOTRA E. (2010);samp. EL85;;ETNA/SICILY / ELLITTICO-MONGIBELLO TRANSITION SEQUENCE;PIANO DELLE CONCAZZE AREA, BETWEEN PIZZI DE NERI AND THE NORTH EAST CRATER;37.73;15;37.73;15;2790;2790;OUTCROP;;;SUBAERIAL;VOLCANIC ROCK;BENMOREITE;MESOPHYRIC, SERIATE;LAVA FLOW AT THE BOTTOM;15000;15000;PLEISTOCENE;;;;;;;MINERAL / COMPONENT (INCL. GROUNDMASS);PHLOGOPITE;;;;PRIMARY;;;;;42.0759;4.1776;;;;11.1049;0;;;;;;;;;8.7705;;;0.0382;20.503;0.1562;;;;;;8.6237;EMP (EPMA);;;1.1839;;;;;;;;6.0745;0.0855;;;;;;;;;;;;;;;;;;;;;;;;;;;;;;;;;;;;;;;;;;;;;;;;;;;;;;;;;;;;;;;;;;;;;;;;;;;;;;;;;;;;;;;;;;;;;;;;;;;;;;;;;;;;;;;;;;;;;;;;;;;;;;;;;;;;;;;;;;;;;;;;;;;;;;;;;;;;;;;;;;;;;;;;;;;;;;;;;;;;;;;;;;;;;;;;;;;;;;;;;;;;;;;;;;;;;;;;;;;;;;;;;;;;;;;;;;;;;;;;;;;;;;;;;;;;;;;;;;;
2010;[14264] NICOTRA E. (2010);samp. EL85;;ETNA/SICILY / ELLITTICO-MONGIBELLO TRANSITION SEQUENCE;PIANO DELLE CONCAZZE AREA, BETWEEN PIZZI DE NERI AND THE NORTH EAST CRATER;37.73;15;37.73;15;2790;2790;OUTCROP;;;SUBAERIAL;VOLCANIC ROCK;BENMOREITE;MESOPHYRIC, SERIATE;LAVA FLOW AT THE BOTTOM;15000;15000;PLEISTOCENE;;;;;;;MINERAL / COMPONENT (INCL. GROUNDMASS);PHLOGOPITE;;;;PRIMARY;;;;;40.8765;4.1962;;;;11.3378;0.0251;;;;;;;;;9.1532;;;0.041;20.1996;0.1068;;;;;;8.6794;EMP (EPMA);;;0.9434;;;;;;;;6.2325;0.0712;;;;;;;;;;;;;;;;;;;;;;;;;;;;;;;;;;;;;;;;;;;;;;;;;;;;;;;;;;;;;;;;;;;;;;;;;;;;;;;;;;;;;;;;;;;;;;;;;;;;;;;;;;;;;;;;;;;;;;;;;;;;;;;;;;;;;;;;;;;;;;;;;;;;;;;;;;;;;;;;;;;;;;;;;;;;;;;;;;;;;;;;;;;;;;;;;;;;;;;;;;;;;;;;;;;;;;;;;;;;;;;;;;;;;;;;;;;;;;;;;;;;;;;;;;;;;;;;;;;
2010;[14264] NICOTRA E. (2010);samp. EL85;;ETNA/SICILY / ELLITTICO-MONGIBELLO TRANSITION SEQUENCE;PIANO DELLE CONCAZZE AREA, BETWEEN PIZZI DE NERI AND THE NORTH EAST CRATER;37.73;15;37.73;15;2790;2790;OUTCROP;;;SUBAERIAL;VOLCANIC ROCK;BENMOREITE;MESOPHYRIC, SERIATE;LAVA FLOW AT THE BOTTOM;15000;15000;PLEISTOCENE;;;;;;;MINERAL / COMPONENT (INCL. GROUNDMASS);PHLOGOPITE;;;;PRIMARY;;;;;41.2462;4.3806;;;;11.3792;0.0629;;;;;;;;;8.7832;;;0.0055;20.1328;0.189;;;;;;9.0181;EMP (EPMA);;;1.0023;;;;;;;;6.0139;0.0553;;;;;;;;;;;;;;;;;;;;;;;;;;;;;;;;;;;;;;;;;;;;;;;;;;;;;;;;;;;;;;;;;;;;;;;;;;;;;;;;;;;;;;;;;;;;;;;;;;;;;;;;;;;;;;;;;;;;;;;;;;;;;;;;;;;;;;;;;;;;;;;;;;;;;;;;;;;;;;;;;;;;;;;;;;;;;;;;;;;;;;;;;;;;;;;;;;;;;;;;;;;;;;;;;;;;;;;;;;;;;;;;;;;;;;;;;;;;;;;;;;;;;;;;;;;;;;;;;;;
2010;[14264] NICOTRA E. (2010);samp. EL85;;ETNA/SICILY / ELLITTICO-MONGIBELLO TRANSITION SEQUENCE;PIANO DELLE CONCAZZE AREA, BETWEEN PIZZI DE NERI AND THE NORTH EAST CRATER;37.73;15;37.73;15;2790;2790;OUTCROP;;;SUBAERIAL;VOLCANIC ROCK;BENMOREITE;MESOPHYRIC, SERIATE;LAVA FLOW AT THE BOTTOM;15000;15000;PLEISTOCENE;;;;;;;MINERAL / COMPONENT (INCL. GROUNDMASS);PHLOGOPITE;;;;PRIMARY;;;;;41.1097;4.0471;;;;11.4001;0.0377;;;;;;;;;9.0345;;;0.0424;20.1988;0.0414;;;;;;8.7584;EMP (EPMA);;;1.039;;;;;;;;6.4013;0.0445;;;;;;;;;;;;;;;;;;;;;;;;;;;;;;;;;;;;;;;;;;;;;;;;;;;;;;;;;;;;;;;;;;;;;;;;;;;;;;;;;;;;;;;;;;;;;;;;;;;;;;;;;;;;;;;;;;;;;;;;;;;;;;;;;;;;;;;;;;;;;;;;;;;;;;;;;;;;;;;;;;;;;;;;;;;;;;;;;;;;;;;;;;;;;;;;;;;;;;;;;;;;;;;;;;;;;;;;;;;;;;;;;;;;;;;;;;;;;;;;;;;;;;;;;;;;;;;;;;;
2010;[14264] NICOTRA E. (2010);samp. EL85;;ETNA/SICILY / ELLITTICO-MONGIBELLO TRANSITION SEQUENCE;PIANO DELLE CONCAZZE AREA, BETWEEN PIZZI DE NERI AND THE NORTH EAST CRATER;37.73;15;37.73;15;2790;2790;OUTCROP;;;SUBAERIAL;VOLCANIC ROCK;BENMOREITE;MESOPHYRIC, SERIATE;LAVA FLOW AT THE BOTTOM;15000;15000;PLEISTOCENE;;;;;;;MINERAL / COMPONENT (INCL. GROUNDMASS);PHLOGOPITE;;;;PRIMARY;;;;;42.0084;3.7131;;;;10.7807;0.0378;;;;;;;;;8.3617;;;0;20.4444;0.1538;;;;;;8.6002;EMP (EPMA);;;1.2035;;;;;;;;5.7419;0.0751;;;;;;;;;;;;;;;;;;;;;;;;;;;;;;;;;;;;;;;;;;;;;;;;;;;;;;;;;;;;;;;;;;;;;;;;;;;;;;;;;;;;;;;;;;;;;;;;;;;;;;;;;;;;;;;;;;;;;;;;;;;;;;;;;;;;;;;;;;;;;;;;;;;;;;;;;;;;;;;;;;;;;;;;;;;;;;;;;;;;;;;;;;;;;;;;;;;;;;;;;;;;;;;;;;;;;;;;;;;;;;;;;;;;;;;;;;;;;;;;;;;;;;;;;;;;;;;;;;;
2010;[14264] NICOTRA E. (2010);samp. EL85;;ETNA/SICILY / ELLITTICO-MONGIBELLO TRANSITION SEQUENCE;PIANO DELLE CONCAZZE AREA, BETWEEN PIZZI DE NERI AND THE NORTH EAST CRATER;37.73;15;37.73;15;2790;2790;OUTCROP;;;SUBAERIAL;VOLCANIC ROCK;BENMOREITE;MESOPHYRIC, SERIATE;LAVA FLOW AT THE BOTTOM;15000;15000;PLEISTOCENE;;;;;;;MINERAL / COMPONENT (INCL. GROUNDMASS);PHLOGOPITE;;;;PRIMARY;;;;;42.1711;4.1498;;;;10.7943;0;;;;;;;;;8.5203;;;0;20.497;0.1156;;;;;;8.7341;EMP (EPMA);;;1.1439;;;;;;;;6.4755;0.0842;;;;;;;;;;;;;;;;;;;;;;;;;;;;;;;;;;;;;;;;;;;;;;;;;;;;;;;;;;;;;;;;;;;;;;;;;;;;;;;;;;;;;;;;;;;;;;;;;;;;;;;;;;;;;;;;;;;;;;;;;;;;;;;;;;;;;;;;;;;;;;;;;;;;;;;;;;;;;;;;;;;;;;;;;;;;;;;;;;;;;;;;;;;;;;;;;;;;;;;;;;;;;;;;;;;;;;;;;;;;;;;;;;;;;;;;;;;;;;;;;;;;;;;;;;;;;;;;;;;
2010;[14264] NICOTRA E. (2010);samp. EL85;;ETNA/SICILY / ELLITTICO-MONGIBELLO TRANSITION SEQUENCE;PIANO DELLE CONCAZZE AREA, BETWEEN PIZZI DE NERI AND THE NORTH EAST CRATER;37.73;15;37.73;15;2790;2790;OUTCROP;;;SUBAERIAL;VOLCANIC ROCK;BENMOREITE;MESOPHYRIC, SERIATE;LAVA FLOW AT THE BOTTOM;15000;15000;PLEISTOCENE;;;;;;;MINERAL / COMPONENT (INCL. GROUNDMASS);PHLOGOPITE;;;;PRIMARY;;;;;41.2077;4.2274;;;;11.0618;0.0504;;;;;;;;;8.9587;;;0;20.1508;0.1853;;;;;;8.7229;EMP (EPMA);;;1.1037;;;;;;;;6.2308;0.0841;;;;;;;;;;;;;;;;;;;;;;;;;;;;;;;;;;;;;;;;;;;;;;;;;;;;;;;;;;;;;;;;;;;;;;;;;;;;;;;;;;;;;;;;;;;;;;;;;;;;;;;;;;;;;;;;;;;;;;;;;;;;;;;;;;;;;;;;;;;;;;;;;;;;;;;;;;;;;;;;;;;;;;;;;;;;;;;;;;;;;;;;;;;;;;;;;;;;;;;;;;;;;;;;;;;;;;;;;;;;;;;;;;;;;;;;;;;;;;;;;;;;;;;;;;;;;;;;;;;
2010;[14264] NICOTRA E. (2010);samp. EL85;;ETNA/SICILY / ELLITTICO-MONGIBELLO TRANSITION SEQUENCE;PIANO DELLE CONCAZZE AREA, BETWEEN PIZZI DE NERI AND THE NORTH EAST CRATER;37.73;15;37.73;15;2790;2790;OUTCROP;;;SUBAERIAL;VOLCANIC ROCK;BENMOREITE;MESOPHYRIC, SERIATE;LAVA FLOW AT THE BOTTOM;15000;15000;PLEISTOCENE;;;;;;;MINERAL / COMPONENT (INCL. GROUNDMASS);PHLOGOPITE;;;;PRIMARY;;;;;41.0921;4.4549;;;;11.1246;0.0315;;;;;;;;;8.945;;;0;20.3979;0.1843;;;;;;8.7611;EMP (EPMA);;;0.9887;;;;;;;;5.4957;0.0501;;;;;;;;;;;;;;;;;;;;;;;;;;;;;;;;;;;;;;;;;;;;;;;;;;;;;;;;;;;;;;;;;;;;;;;;;;;;;;;;;;;;;;;;;;;;;;;;;;;;;;;;;;;;;;;;;;;;;;;;;;;;;;;;;;;;;;;;;;;;;;;;;;;;;;;;;;;;;;;;;;;;;;;;;;;;;;;;;;;;;;;;;;;;;;;;;;;;;;;;;;;;;;;;;;;;;;;;;;;;;;;;;;;;;;;;;;;;;;;;;;;;;;;;;;;;;;;;;;;
2010;[14264] NICOTRA E. (2010);samp. EL85;;ETNA/SICILY / ELLITTICO-MONGIBELLO TRANSITION SEQUENCE;PIANO DELLE CONCAZZE AREA, BETWEEN PIZZI DE NERI AND THE NORTH EAST CRATER;37.73;15;37.73;15;2790;2790;OUTCROP;;;SUBAERIAL;VOLCANIC ROCK;BENMOREITE;MESOPHYRIC, SERIATE;LAVA FLOW AT THE BOTTOM;15000;15000;PLEISTOCENE;;;;;;;MINERAL / COMPONENT (INCL. GROUNDMASS);PHLOGOPITE;;;;PRIMARY;;;;;41.4556;4.3041;;;;11.289;0;;;;;;;;;8.8987;;;0.0275;20.2822;0.2108;;;;;;8.7528;EMP (EPMA);;;0.9661;;;;;;;;6.2224;0.1307;;;;;;;;;;;;;;;;;;;;;;;;;;;;;;;;;;;;;;;;;;;;;;;;;;;;;;;;;;;;;;;;;;;;;;;;;;;;;;;;;;;;;;;;;;;;;;;;;;;;;;;;;;;;;;;;;;;;;;;;;;;;;;;;;;;;;;;;;;;;;;;;;;;;;;;;;;;;;;;;;;;;;;;;;;;;;;;;;;;;;;;;;;;;;;;;;;;;;;;;;;;;;;;;;;;;;;;;;;;;;;;;;;;;;;;;;;;;;;;;;;;;;;;;;;;;;;;;;;;
2010;[14264] NICOTRA E. (2010);samp. EL85;;ETNA/SICILY / ELLITTICO-MONGIBELLO TRANSITION SEQUENCE;PIANO DELLE CONCAZZE AREA, BETWEEN PIZZI DE NERI AND THE NORTH EAST CRATER;37.73;15;37.73;15;2790;2790;OUTCROP;;;SUBAERIAL;VOLCANIC ROCK;BENMOREITE;MESOPHYRIC, SERIATE;LAVA FLOW AT THE BOTTOM;15000;15000;PLEISTOCENE;;;;;;;MINERAL / COMPONENT (INCL. GROUNDMASS);PHLOGOPITE;;;;PRIMARY;;;;;41.839;4.0819;;;;11.1273;0.0126;;;;;;;;;8.3818;;;0.0398;20.3377;0.0974;;;;;;8.6858;EMP (EPMA);;;1.066;;;;;;;;7.3245;0.043;;;;;;;;;;;;;;;;;;;;;;;;;;;;;;;;;;;;;;;;;;;;;;;;;;;;;;;;;;;;;;;;;;;;;;;;;;;;;;;;;;;;;;;;;;;;;;;;;;;;;;;;;;;;;;;;;;;;;;;;;;;;;;;;;;;;;;;;;;;;;;;;;;;;;;;;;;;;;;;;;;;;;;;;;;;;;;;;;;;;;;;;;;;;;;;;;;;;;;;;;;;;;;;;;;;;;;;;;;;;;;;;;;;;;;;;;;;;;;;;;;;;;;;;;;;;;;;;;;;
2010;[14264] NICOTRA E. (2010);samp. EL85;;ETNA/SICILY / ELLITTICO-MONGIBELLO TRANSITION SEQUENCE;PIANO DELLE CONCAZZE AREA, BETWEEN PIZZI DE NERI AND THE NORTH EAST CRATER;37.73;15;37.73;15;2790;2790;OUTCROP;;;SUBAERIAL;VOLCANIC ROCK;BENMOREITE;MESOPHYRIC, SERIATE;LAVA FLOW AT THE BOTTOM;15000;15000;PLEISTOCENE;;;;;;;MINERAL / COMPONENT (INCL. GROUNDMASS);PHLOGOPITE;;;;PRIMARY;;;;;41.7791;4.1411;;;;11.2955;0;;;;;;;;;9.1085;;;0.011;20.6449;0.0699;;;;;;8.408;EMP (EPMA);;;1.1392;;;;;;;;6.7149;0.077;;;;;;;;;;;;;;;;;;;;;;;;;;;;;;;;;;;;;;;;;;;;;;;;;;;;;;;;;;;;;;;;;;;;;;;;;;;;;;;;;;;;;;;;;;;;;;;;;;;;;;;;;;;;;;;;;;;;;;;;;;;;;;;;;;;;;;;;;;;;;;;;;;;;;;;;;;;;;;;;;;;;;;;;;;;;;;;;;;;;;;;;;;;;;;;;;;;;;;;;;;;;;;;;;;;;;;;;;;;;;;;;;;;;;;;;;;;;;;;;;;;;;;;;;;;;;;;;;;;
2010;[14264] NICOTRA E. (2010);samp. EL85;;ETNA/SICILY / ELLITTICO-MONGIBELLO TRANSITION SEQUENCE;PIANO DELLE CONCAZZE AREA, BETWEEN PIZZI DE NERI AND THE NORTH EAST CRATER;37.73;15;37.73;15;2790;2790;OUTCROP;;;SUBAERIAL;VOLCANIC ROCK;BENMOREITE;MESOPHYRIC, SERIATE;LAVA FLOW AT THE BOTTOM;15000;15000;PLEISTOCENE;;;;;;;MINERAL / COMPONENT (INCL. GROUNDMASS);PHLOGOPITE;;;;PRIMARY;;;;;41.0313;4.1233;;;;11.3494;0.0947;;;;;;;;;8.6107;;;0.0893;19.9174;0.1561;;;;;;8.8196;EMP (EPMA);;;0.8837;;;;;;;;6.7005;0.0626;;;;;;;;;;;;;;;;;;;;;;;;;;;;;;;;;;;;;;;;;;;;;;;;;;;;;;;;;;;;;;;;;;;;;;;;;;;;;;;;;;;;;;;;;;;;;;;;;;;;;;;;;;;;;;;;;;;;;;;;;;;;;;;;;;;;;;;;;;;;;;;;;;;;;;;;;;;;;;;;;;;;;;;;;;;;;;;;;;;;;;;;;;;;;;;;;;;;;;;;;;;;;;;;;;;;;;;;;;;;;;;;;;;;;;;;;;;;;;;;;;;;;;;;;;;;;;;;;;;
2010;[14264] NICOTRA E. (2010);samp. EL85;;ETNA/SICILY / ELLITTICO-MONGIBELLO TRANSITION SEQUENCE;PIANO DELLE CONCAZZE AREA, BETWEEN PIZZI DE NERI AND THE NORTH EAST CRATER;37.73;15;37.73;15;2790;2790;OUTCROP;;;SUBAERIAL;VOLCANIC ROCK;BENMOREITE;MESOPHYRIC, SERIATE;LAVA FLOW AT THE BOTTOM;15000;15000;PLEISTOCENE;;;;;;;MINERAL / COMPONENT (INCL. GROUNDMASS);PHLOGOPITE;;;;PRIMARY;;;;;41.46;4.1007;;;;11.2559;0.019;;;;;;;;;8.3613;;;0.0467;20.375;0.1938;;;;;;9.0725;EMP (EPMA);;;0.7099;;;;;;;;6.6295;0.1181;;;;;;;;;;;;;;;;;;;;;;;;;;;;;;;;;;;;;;;;;;;;;;;;;;;;;;;;;;;;;;;;;;;;;;;;;;;;;;;;;;;;;;;;;;;;;;;;;;;;;;;;;;;;;;;;;;;;;;;;;;;;;;;;;;;;;;;;;;;;;;;;;;;;;;;;;;;;;;;;;;;;;;;;;;;;;;;;;;;;;;;;;;;;;;;;;;;;;;;;;;;;;;;;;;;;;;;;;;;;;;;;;;;;;;;;;;;;;;;;;;;;;;;;;;;;;;;;;;;
2010;[14264] NICOTRA E. (2010);samp. EL85;;ETNA/SICILY / ELLITTICO-MONGIBELLO TRANSITION SEQUENCE;PIANO DELLE CONCAZZE AREA, BETWEEN PIZZI DE NERI AND THE NORTH EAST CRATER;37.73;15;37.73;15;2790;2790;OUTCROP;;;SUBAERIAL;VOLCANIC ROCK;BENMOREITE;MESOPHYRIC, SERIATE;LAVA FLOW AT THE BOTTOM;15000;15000;PLEISTOCENE;;;;;;;MINERAL / COMPONENT (INCL. GROUNDMASS);PHLOGOPITE;;;;PRIMARY;;;;;41.4258;4.3992;;;;11.2805;0;;;;;;;;;8.7889;;;0.0247;20.4916;0.1348;;;;;;9.1851;EMP (EPMA);;;0.9296;;;;;;;;6.4014;0.0626;;;;;;;;;;;;;;;;;;;;;;;;;;;;;;;;;;;;;;;;;;;;;;;;;;;;;;;;;;;;;;;;;;;;;;;;;;;;;;;;;;;;;;;;;;;;;;;;;;;;;;;;;;;;;;;;;;;;;;;;;;;;;;;;;;;;;;;;;;;;;;;;;;;;;;;;;;;;;;;;;;;;;;;;;;;;;;;;;;;;;;;;;;;;;;;;;;;;;;;;;;;;;;;;;;;;;;;;;;;;;;;;;;;;;;;;;;;;;;;;;;;;;;;;;;;;;;;;;;;
2010;[14264] NICOTRA E. (2010);samp. EL85;;ETNA/SICILY / ELLITTICO-MONGIBELLO TRANSITION SEQUENCE;PIANO DELLE CONCAZZE AREA, BETWEEN PIZZI DE NERI AND THE NORTH EAST CRATER;37.73;15;37.73;15;2790;2790;OUTCROP;;;SUBAERIAL;VOLCANIC ROCK;BENMOREITE;MESOPHYRIC, SERIATE;LAVA FLOW AT THE BOTTOM;15000;15000;PLEISTOCENE;;;;;;;MINERAL / COMPONENT (INCL. GROUNDMASS);PHLOGOPITE;;;;PRIMARY;;;;;41.6985;4.0487;;;;11.1613;0.038;;;;;;;;;8.4152;;;0.084;20.4862;0.1016;;;;;;8.5661;EMP (EPMA);;;1.11;;;;;;;;5.9141;0.0503;;;;;;;;;;;;;;;;;;;;;;;;;;;;;;;;;;;;;;;;;;;;;;;;;;;;;;;;;;;;;;;;;;;;;;;;;;;;;;;;;;;;;;;;;;;;;;;;;;;;;;;;;;;;;;;;;;;;;;;;;;;;;;;;;;;;;;;;;;;;;;;;;;;;;;;;;;;;;;;;;;;;;;;;;;;;;;;;;;;;;;;;;;;;;;;;;;;;;;;;;;;;;;;;;;;;;;;;;;;;;;;;;;;;;;;;;;;;;;;;;;;;;;;;;;;;;;;;;;;
2010;[14264] NICOTRA E. (2010);samp. EL85;;ETNA/SICILY / ELLITTICO-MONGIBELLO TRANSITION SEQUENCE;PIANO DELLE CONCAZZE AREA, BETWEEN PIZZI DE NERI AND THE NORTH EAST CRATER;37.73;15;37.73;15;2790;2790;OUTCROP;;;SUBAERIAL;VOLCANIC ROCK;BENMOREITE;MESOPHYRIC, SERIATE;LAVA FLOW AT THE BOTTOM;15000;15000;PLEISTOCENE;;;;;;;MINERAL / COMPONENT (INCL. GROUNDMASS);PHLOGOPITE;;;;PRIMARY;;;;;41.7024;4.0633;;;;11.2053;0.0822;;;;;;;;;8.781;;;0.0729;20.2509;0.1665;;;;;;8.7329;EMP (EPMA);;;1.0436;;;;;;;;6.3351;0.0735;;;;;;;;;;;;;;;;;;;;;;;;;;;;;;;;;;;;;;;;;;;;;;;;;;;;;;;;;;;;;;;;;;;;;;;;;;;;;;;;;;;;;;;;;;;;;;;;;;;;;;;;;;;;;;;;;;;;;;;;;;;;;;;;;;;;;;;;;;;;;;;;;;;;;;;;;;;;;;;;;;;;;;;;;;;;;;;;;;;;;;;;;;;;;;;;;;;;;;;;;;;;;;;;;;;;;;;;;;;;;;;;;;;;;;;;;;;;;;;;;;;;;;;;;;;;;;;;;;;
2010;[14264] NICOTRA E. (2010);samp. EL85;;ETNA/SICILY / ELLITTICO-MONGIBELLO TRANSITION SEQUENCE;PIANO DELLE CONCAZZE AREA, BETWEEN PIZZI DE NERI AND THE NORTH EAST CRATER;37.73;15;37.73;15;2790;2790;OUTCROP;;;SUBAERIAL;VOLCANIC ROCK;BENMOREITE;MESOPHYRIC, SERIATE;LAVA FLOW AT THE BOTTOM;15000;15000;PLEISTOCENE;;;;;;;MINERAL / COMPONENT (INCL. GROUNDMASS);PHLOGOPITE;;;;PRIMARY;;;;;41.7483;4.1642;;;;11.3315;0.0633;;;;;;;;;8.5104;;;0.0619;20.4037;0.0792;;;;;;8.6841;EMP (EPMA);;;1.1626;;;;;;;;6.0002;0.0843;;;;;;;;;;;;;;;;;;;;;;;;;;;;;;;;;;;;;;;;;;;;;;;;;;;;;;;;;;;;;;;;;;;;;;;;;;;;;;;;;;;;;;;;;;;;;;;;;;;;;;;;;;;;;;;;;;;;;;;;;;;;;;;;;;;;;;;;;;;;;;;;;;;;;;;;;;;;;;;;;;;;;;;;;;;;;;;;;;;;;;;;;;;;;;;;;;;;;;;;;;;;;;;;;;;;;;;;;;;;;;;;;;;;;;;;;;;;;;;;;;;;;;;;;;;;;;;;;;;
2010;[14264] NICOTRA E. (2010);samp. EL85;;ETNA/SICILY / ELLITTICO-MONGIBELLO TRANSITION SEQUENCE;PIANO DELLE CONCAZZE AREA, BETWEEN PIZZI DE NERI AND THE NORTH EAST CRATER;37.73;15;37.73;15;2790;2790;OUTCROP;;;SUBAERIAL;VOLCANIC ROCK;BENMOREITE;MESOPHYRIC, SERIATE;LAVA FLOW AT THE BOTTOM;15000;15000;PLEISTOCENE;;;;;;;MINERAL / COMPONENT (INCL. GROUNDMASS);PHLOGOPITE;;;;PRIMARY;;;;;41.1558;4.5431;;;;11.2701;0.0379;;;;;;;;;9.0582;;;0.081;19.7599;0.1552;;;;;;8.7192;EMP (EPMA);;;1.0266;;;;;;;;5.8312;0.111;;;;;;;;;;;;;;;;;;;;;;;;;;;;;;;;;;;;;;;;;;;;;;;;;;;;;;;;;;;;;;;;;;;;;;;;;;;;;;;;;;;;;;;;;;;;;;;;;;;;;;;;;;;;;;;;;;;;;;;;;;;;;;;;;;;;;;;;;;;;;;;;;;;;;;;;;;;;;;;;;;;;;;;;;;;;;;;;;;;;;;;;;;;;;;;;;;;;;;;;;;;;;;;;;;;;;;;;;;;;;;;;;;;;;;;;;;;;;;;;;;;;;;;;;;;;;;;;;;;
2010;[14264] NICOTRA E. (2010);samp. EL85;;ETNA/SICILY / ELLITTICO-MONGIBELLO TRANSITION SEQUENCE;PIANO DELLE CONCAZZE AREA, BETWEEN PIZZI DE NERI AND THE NORTH EAST CRATER;37.73;15;37.73;15;2790;2790;OUTCROP;;;SUBAERIAL;VOLCANIC ROCK;BENMOREITE;MESOPHYRIC, SERIATE;LAVA FLOW AT THE BOTTOM;15000;15000;PLEISTOCENE;;;;;;;MINERAL / COMPONENT (INCL. GROUNDMASS);PHLOGOPITE;;;;PRIMARY;;;;;41.3961;4.3411;;;;11.2411;0.0632;;;;;;;;;8.5797;;;0.066;20.2308;0.0985;;;;;;8.8413;EMP (EPMA);;;0.878;;;;;;;;5.6804;0.0842;;;;;;;;;;;;;;;;;;;;;;;;;;;;;;;;;;;;;;;;;;;;;;;;;;;;;;;;;;;;;;;;;;;;;;;;;;;;;;;;;;;;;;;;;;;;;;;;;;;;;;;;;;;;;;;;;;;;;;;;;;;;;;;;;;;;;;;;;;;;;;;;;;;;;;;;;;;;;;;;;;;;;;;;;;;;;;;;;;;;;;;;;;;;;;;;;;;;;;;;;;;;;;;;;;;;;;;;;;;;;;;;;;;;;;;;;;;;;;;;;;;;;;;;;;;;;;;;;;;