Year;CITATION;SAMPLE NAME;UNIQUE_ID;LOCATION;LOCATION COMMENT;LATITUDE (MIN.);LONGITUDE (MIN.);LATITUDE (MAX.);LONGITUDE (MAX.);ELEVATION (MIN.);ELEVATION (MAX.);SAMPLING TECHNIQUE;DRILLING DEPTH (MIN.);DRILLING DEPTH (MAX.);LAND/SEA (SAMPLING);ROCK TYPE;ROCK NAME;ROCK TEXTURE;SAMPLE COMMENT;AGE (MIN.);AGE (MAX.);GEOLOGICAL AGE;GEOLOGICAL AGE PREFIX;ERUPTION DAY;ERUPTION MONTH;ERUPTION YEAR;ALTERATION;ALTERATION TYPE;TYPE OF MATERIAL;MINERAL / COMPONENT;SPOT (MINERAL);CRYSTAL;RIM / CORE (MINERAL GRAINS);PRIMARY/SECONDARY;INCLUSION TYPE;MINERAL (INCLUSION);HOSTMINERAL (INCLUSION);HEATING;SIO2(WT%);TIO2(WT%);ZRO2(WT%);HFO2(WT%);THO2(WT%);AL2O3(WT%);CR2O3(WT%);LA2O3(WT%);CE2O3(WT%);ND2O3(WT%);SM2O3(WT%);V2O3(WT%);NB2O5(WT%);FE2O3T(WT%);FE2O3(WT%);FEOT(WT%);FEO(WT%);FET(WT%);CAO(WT%);MGO(WT%);MNO(WT%);BAO(WT%);SRO(WT%);NIO(WT%);ZNO(WT%);RB2O(WT%);K2O(WT%);;;;NA2O(WT%);P2O5(WT%);AS2O5(WT%);H2O(WT%);H2OP(WT%);H2OM(WT%);CO2(WT%);C(WT%);F(WT%);CL(WT%);OH(WT%);SO3(WT%);S(WT%);LOI(WT%);TI(WT%);CA(WT%);K(WT%);LI(PPM);BE(PPM);B(PPM);F(PPM);P(PPM);S(PPM);CL(PPM);AR40(AT/G);;;;AR40(CCMSTP/G);;;;AR40(MOL/G);;;;AR40(PPB);K(PPM);SC(PPM);;;;TI(PPM);V(PPM);;;;CR(PPM);;;;CO(PPM);;;;NI(PPM);;;;CU(PPM);;;;ZN(PPM);;;;GA(PPM);;;;GE(PPM);AS(PPM);AS(PPB);SE(PPM);RB(PPM);;;;;;SR(PPM);;;;;;Y(PPM);;;;ZR(PPM);;;;NB(PPM);;;;MO(PPM);AG(PPM);CD(PPM);IN(PPM);SN(PPM);SB(PPM): altern. values or methods;;;;TE(PPM);CS(PPM): altern. values or methods;;;;BA(PPM): altern. values or methods;;;;LA(PPM): altern. values or methods;;;;CE(PPM): altern. values or methods;;;;PR(PPM);ND(PPM): altern. values or methods;;;;;;SM(PPM): altern. values or methods;;;;EU(PPM): altern. values or methods;;;;GD(PPM): altern. values or methods;;;;TB(PPM): altern. values or methods;;;;DY(PPM): altern. values or methods;;;;HO(PPM);ER(PPM): altern. values or methods;;;;TM(PPM);YB(PPM): altern. values or methods;;;;LU(PPM);HF(PPM);TA(PPM);W(PPM);RE(PPM);AU(PPM);HG(PPM);HG(PPB);TL(PPM);PB(PPM): altern. values or methods;;;;BI(PPM);PO210_ACT(DPM/G);RA226_ACT(DPM/G);TH(PPM): altern. values or methods;;;;U(PPM): altern. values or methods;;;;ND143_ND144;ND143_ND144_INI;EPSILON_ND;EPSILON_ND_INI;SM147_ND144;SR87_SR86;SR87_SR86_INI;EPSILON_SR_INI;RB87_SR86;PB206_PB204: altern. values or methods;;;;PB206_PB204_INI;PB207_PB204: altern. values or methods;;;;PB207_PB204_INI;PB207_PB206;PB208_PB204: altern. values or methods;;;;PB208_PB204_INI;PB208_PB206;HF176_HF177;LU176_HF177;AR38_AR36;AR40_AR36;AR40_AR36_INI;PB206_U238;PB207_U235;RA226_TH230_ACT;PA231_U235_ACT;TH230_TH232_ACT;TH230_U238_ACT;TH232_PB204;U234_U238_ACT;U235_PB204;U238_PB204;U238_TH232_ACT;D7LI(VS LSVEC);D13C(VS PDB);D18O(PER MIL);D18O(VS SMOW);D18O(VS VSMOW);D34S(VS VCDT);ALBITE(MOL%);ANORTHITE(MOL%);CA OLIVINE(MOL%);CHROMITE(MOL%);ENSTATITE(MOL%);FAYALITE(MOL%);FORSTERITE(MOL%);FERROSILITE(MOL%);HEMATITE(MOL%);HERCYNITE(MOL%);ILMENITE(MOL%);MAGNESIOFERRITE(MOL%);MONTICELLITE(MOL%);MAGNETITE(MOL%);ORTHOCLASE(MOL%);PICROCHROMITE(MOL%);SPINEL(MOL%);TEPHROITE(MOL%);ULVOSPINEL(MOL%);WOLLASTONITE(MOL%);AGE(KA): altern. values or methods;;;;;;AGE(MA): altern. values or methods;;;;;;AGE_PB207_U235(MA);AGE_PB206_U238(MA);
1980;[10737] MAURY R. C. (1980);samp. CP5;;EUROPEAN OROGENIC BELT - CENOZOIC/QUATERNARY / FRANCE / FRENCH MASSIF CENTRAL / CHAINE DES PUYS;PUY DE LA NUGERE;45.67;2.98;45.67;2.98;;;OUTCROP;;;SUBAERIAL;VOLCANIC ROCK;BENMOREITE;;;;;CENOZOIC;;;;;;;MINERAL / COMPONENT (INCL. GROUNDMASS);OLIVINE;;MICROCRYST;;PRIMARY;;;;;35.5;0.01;;;;0;0;;;;;;;;;;38.71;;0.2;24.28;1.81;;;;;;0.07;EMP (EPMA);;;0;;;;;;;;;;;;;;;;;;;;;;;;;;;;;;;;;;;;;;;;;;;;;;;;;;;;;;;;;;;;;;;;;;;;;;;;;;;;;;;;;;;;;;;;;;;;;;;;;;;;;;;;;;;;;;;;;;;;;;;;;;;;;;;;;;;;;;;;;;;;;;;;;;;;;;;;;;;;;;;;;;;;;;;;;;;;;;;;;;;;;;;;;;;;;;;;;;;;;;;;;;;;;;;;;;;;;;;;;;;;;;;;;;;;;;;;;;;;;;;;51.6;;;;;;;;;;;;;;;;;;;;;;;;;;;;
1980;[10737] MAURY R. C. (1980);samp. CP5;;EUROPEAN OROGENIC BELT - CENOZOIC/QUATERNARY / FRANCE / FRENCH MASSIF CENTRAL / CHAINE DES PUYS;PUY DE LA NUGERE;45.67;2.98;45.67;2.98;;;OUTCROP;;;SUBAERIAL;VOLCANIC ROCK;BENMOREITE;;;;;CENOZOIC;;;;;;;MINERAL / COMPONENT (INCL. GROUNDMASS);PYROXENE;;MICROCRYST;;PRIMARY;;;;;51.69;0.61;;;;1.42;0;;;;;;;;1.9;10.02;1.31;;20.4;13.53;1.03;;;;;;0.02;EMP (EPMA);;;0.58;;;;;;;;;;;;;;;;;;;;;;;;;;;;;;;;;;;;;;;;;;;;;;;;;;;;;;;;;;;;;;;;;;;;;;;;;;;;;;;;;;;;;;;;;;;;;;;;;;;;;;;;;;;;;;;;;;;;;;;;;;;;;;;;;;;;;;;;;;;;;;;;;;;;;;;;;;;;;;;;;;;;;;;;;;;;;;;;;;;;;;;;;;;;;;;;;;;;;;;;;;;;;;;;;;;;;;;;;;;;;;;;;;;;;;;;;;;;;;;;;;;;;;;;;;;;;;;;;;;;;;;;;;;;
1980;[10737] MAURY R. C. (1980);samp. CP5;;EUROPEAN OROGENIC BELT - CENOZOIC/QUATERNARY / FRANCE / FRENCH MASSIF CENTRAL / CHAINE DES PUYS;PUY DE LA NUGERE;45.67;2.98;45.67;2.98;;;OUTCROP;;;SUBAERIAL;VOLCANIC ROCK;BENMOREITE;;;;;CENOZOIC;;;;;;;MINERAL / COMPONENT (INCL. GROUNDMASS);PYROXENE;;MICROCRYST;;PRIMARY;;;;;52.09;2.65;;;;0.79;0;;;;;;;;2.37;12.19;10.06;;17.18;14.31;1.24;;;;;;0.03;EMP (EPMA);;;1.24;;;;;;;;;;;;;;;;;;;;;;;;;;;;;;;;;;;;;;;;;;;;;;;;;;;;;;;;;;;;;;;;;;;;;;;;;;;;;;;;;;;;;;;;;;;;;;;;;;;;;;;;;;;;;;;;;;;;;;;;;;;;;;;;;;;;;;;;;;;;;;;;;;;;;;;;;;;;;;;;;;;;;;;;;;;;;;;;;;;;;;;;;;;;;;;;;;;;;;;;;;;;;;;;;;;;;;;;;;;;;;;;;;;;;;;;;;;;;;;;;;;;;;;;;;;;;;;;;;;;;;;;;;;;
1980;[10737] MAURY R. C. (1980);samp. CP5;;EUROPEAN OROGENIC BELT - CENOZOIC/QUATERNARY / FRANCE / FRENCH MASSIF CENTRAL / CHAINE DES PUYS;PUY DE LA NUGERE;45.67;2.98;45.67;2.98;;;OUTCROP;;;SUBAERIAL;VOLCANIC ROCK;BENMOREITE;;;;;CENOZOIC;;;;;;;MINERAL / COMPONENT (INCL. GROUNDMASS);PYROXENE;;MICROCRYST;;PRIMARY;;;;;52.8;0.6;;;;0.43;0;;;;;;;;0.57;15.67;16.18;;12.4;15.95;1.77;;;;;;0;EMP (EPMA);;;0.3;;;;;;;;;;;;;;;;;;;;;;;;;;;;;;;;;;;;;;;;;;;;;;;;;;;;;;;;;;;;;;;;;;;;;;;;;;;;;;;;;;;;;;;;;;;;;;;;;;;;;;;;;;;;;;;;;;;;;;;;;;;;;;;;;;;;;;;;;;;;;;;;;;;;;;;;;;;;;;;;;;;;;;;;;;;;;;;;;;;;;;;;;;;;;;;;;;;;;;;;;;;;;;;;;;;;;;;;;;;;;;;;;;;;;;;;;;;;;;;;;;;;;;;;;;;;;;;;;;;;;;;;;;;;
1980;[10737] MAURY R. C. (1980);samp. CP5;;EUROPEAN OROGENIC BELT - CENOZOIC/QUATERNARY / FRANCE / FRENCH MASSIF CENTRAL / CHAINE DES PUYS;PUY DE LA NUGERE;45.67;2.98;45.67;2.98;;;OUTCROP;;;SUBAERIAL;VOLCANIC ROCK;BENMOREITE;;;;;CENOZOIC;;;;;;;MINERAL / COMPONENT (INCL. GROUNDMASS);PYROXENE;;MICROCRYST;;PRIMARY;;;;;53.1;0.15;;;;0.19;0;;;;;;;;2.33;21.93;24.03;;4.98;17.31;1.79;;;;;;0;EMP (EPMA);;;0.12;;;;;;;;;;;;;;;;;;;;;;;;;;;;;;;;;;;;;;;;;;;;;;;;;;;;;;;;;;;;;;;;;;;;;;;;;;;;;;;;;;;;;;;;;;;;;;;;;;;;;;;;;;;;;;;;;;;;;;;;;;;;;;;;;;;;;;;;;;;;;;;;;;;;;;;;;;;;;;;;;;;;;;;;;;;;;;;;;;;;;;;;;;;;;;;;;;;;;;;;;;;;;;;;;;;;;;;;;;;;;;;;;;;;;;;;;;;;;;;;;;;;;;;;;;;;;;;;;;;;;;;;;;;;
1980;[10737] MAURY R. C. (1980);samp. CP5;;EUROPEAN OROGENIC BELT - CENOZOIC/QUATERNARY / FRANCE / FRENCH MASSIF CENTRAL / CHAINE DES PUYS;PUY DE LA NUGERE;45.67;2.98;45.67;2.98;;;OUTCROP;;;SUBAERIAL;VOLCANIC ROCK;BENMOREITE;;;;;CENOZOIC;;;;;;;MINERAL / COMPONENT (INCL. GROUNDMASS);PYROXENE;;MICROCRYST;;PRIMARY;;;;;52;0.2;;;;0.34;0;;;;;;;;0.15;22.39;21.63;;4.88;18;1.96;;;;;;0.03;EMP (EPMA);;;0.07;;;;;;;;;;;;;;;;;;;;;;;;;;;;;;;;;;;;;;;;;;;;;;;;;;;;;;;;;;;;;;;;;;;;;;;;;;;;;;;;;;;;;;;;;;;;;;;;;;;;;;;;;;;;;;;;;;;;;;;;;;;;;;;;;;;;;;;;;;;;;;;;;;;;;;;;;;;;;;;;;;;;;;;;;;;;;;;;;;;;;;;;;;;;;;;;;;;;;;;;;;;;;;;;;;;;;;;;;;;;;;;;;;;;;;;;;;;;;;;;;;;;;;;;;;;;;;;;;;;;;;;;;;;;
1980;[10737] MAURY R. C. (1980);samp. CP5;;EUROPEAN OROGENIC BELT - CENOZOIC/QUATERNARY / FRANCE / FRENCH MASSIF CENTRAL / CHAINE DES PUYS;PUY DE LA NUGERE;45.67;2.98;45.67;2.98;;;OUTCROP;;;SUBAERIAL;VOLCANIC ROCK;BENMOREITE;;;;;CENOZOIC;;;;;;;MINERAL / COMPONENT (INCL. GROUNDMASS);PYROXENE;;MICROCRYST;;PRIMARY;;;;;52.22;0.36;;;;0.29;0;;;;;;;;0.42;22.45;22.13;;3.91;18.08;2.03;;;;;;0;EMP (EPMA);;;0.14;;;;;;;;;;;;;;;;;;;;;;;;;;;;;;;;;;;;;;;;;;;;;;;;;;;;;;;;;;;;;;;;;;;;;;;;;;;;;;;;;;;;;;;;;;;;;;;;;;;;;;;;;;;;;;;;;;;;;;;;;;;;;;;;;;;;;;;;;;;;;;;;;;;;;;;;;;;;;;;;;;;;;;;;;;;;;;;;;;;;;;;;;;;;;;;;;;;;;;;;;;;;;;;;;;;;;;;;;;;;;;;;;;;;;;;;;;;;;;;;;;;;;;;;;;;;;;;;;;;;;;;;;;;;
1980;[10737] MAURY R. C. (1980);samp. CP6;;EUROPEAN OROGENIC BELT - CENOZOIC/QUATERNARY / FRANCE / FRENCH MASSIF CENTRAL / CHAINE DES PUYS;CLIERZOU;45.67;2.98;45.67;2.98;;;OUTCROP;;;SUBAERIAL;VOLCANIC ROCK;BENMOREITE;;;;;CENOZOIC;;;;;;;MINERAL / COMPONENT (INCL. GROUNDMASS);PYROXENE;;PHENOCRYST;CORE;PRIMARY;;;;;49.4;1.18;;;;5.96;0.2;;;;;;;;3.15;6.08;2.11;;20.63;15.22;0;;;;;;0;EMP (EPMA);;;0.79;;;;;;;;;;;;;;;;;;;;;;;;;;;;;;;;;;;;;;;;;;;;;;;;;;;;;;;;;;;;;;;;;;;;;;;;;;;;;;;;;;;;;;;;;;;;;;;;;;;;;;;;;;;;;;;;;;;;;;;;;;;;;;;;;;;;;;;;;;;;;;;;;;;;;;;;;;;;;;;;;;;;;;;;;;;;;;;;;;;;;;;;;;;;;;;;;;;;;;;;;;;;;;;;;;;;;;;;;;;;;;;;;;;;;;;;;;;;;;;;;;;;;;;;;;;;;;;;;;;;;;;;;;;;
1980;[10737] MAURY R. C. (1980);samp. CP6;;EUROPEAN OROGENIC BELT - CENOZOIC/QUATERNARY / FRANCE / FRENCH MASSIF CENTRAL / CHAINE DES PUYS;CLIERZOU;45.67;2.98;45.67;2.98;;;OUTCROP;;;SUBAERIAL;VOLCANIC ROCK;BENMOREITE;;;;;CENOZOIC;;;;;;;MINERAL / COMPONENT (INCL. GROUNDMASS);PYROXENE;;PHENOCRYST;CORE;PRIMARY;;;;;48.83;1.27;;;;6.15;0.39;;;;;;;;3.54;6.67;3.41;;20.04;14.79;0.14;;;;;;0;EMP (EPMA);;;0.75;;;;;;;;;;;;;;;;;;;;;;;;;;;;;;;;;;;;;;;;;;;;;;;;;;;;;;;;;;;;;;;;;;;;;;;;;;;;;;;;;;;;;;;;;;;;;;;;;;;;;;;;;;;;;;;;;;;;;;;;;;;;;;;;;;;;;;;;;;;;;;;;;;;;;;;;;;;;;;;;;;;;;;;;;;;;;;;;;;;;;;;;;;;;;;;;;;;;;;;;;;;;;;;;;;;;;;;;;;;;;;;;;;;;;;;;;;;;;;;;;;;;;;;;;;;;;;;;;;;;;;;;;;;;
1980;[10737] MAURY R. C. (1980);samp. CP6;;EUROPEAN OROGENIC BELT - CENOZOIC/QUATERNARY / FRANCE / FRENCH MASSIF CENTRAL / CHAINE DES PUYS;CLIERZOU;45.67;2.98;45.67;2.98;;;OUTCROP;;;SUBAERIAL;VOLCANIC ROCK;BENMOREITE;;;;;CENOZOIC;;;;;;;MINERAL / COMPONENT (INCL. GROUNDMASS);PYROXENE;;PHENOCRYST;RIM;PRIMARY;;;;;48.34;1.34;;;;7.25;0.29;;;;;;;;1.64;6.69;5.21;;20.3;14.35;0.08;;;;;;0.01;EMP (EPMA);;;0.39;;;;;;;;;;;;;;;;;;;;;;;;;;;;;;;;;;;;;;;;;;;;;;;;;;;;;;;;;;;;;;;;;;;;;;;;;;;;;;;;;;;;;;;;;;;;;;;;;;;;;;;;;;;;;;;;;;;;;;;;;;;;;;;;;;;;;;;;;;;;;;;;;;;;;;;;;;;;;;;;;;;;;;;;;;;;;;;;;;;;;;;;;;;;;;;;;;;;;;;;;;;;;;;;;;;;;;;;;;;;;;;;;;;;;;;;;;;;;;;;;;;;;;;;;;;;;;;;;;;;;;;;;;;;
1980;[10737] MAURY R. C. (1980);samp. CP6;;EUROPEAN OROGENIC BELT - CENOZOIC/QUATERNARY / FRANCE / FRENCH MASSIF CENTRAL / CHAINE DES PUYS;CLIERZOU;45.67;2.98;45.67;2.98;;;OUTCROP;;;SUBAERIAL;VOLCANIC ROCK;BENMOREITE;;;;;CENOZOIC;;;;;;;MINERAL / COMPONENT (INCL. GROUNDMASS);PYROXENE;;PHENOCRYST;CORE;PRIMARY;;;;;47.22;1.93;;;;8.91;0;;;;;;;;2.9;8.73;6.12;;20.35;12.44;0.23;;;;;;0.01;EMP (EPMA);;;0.77;;;;;;;;;;;;;;;;;;;;;;;;;;;;;;;;;;;;;;;;;;;;;;;;;;;;;;;;;;;;;;;;;;;;;;;;;;;;;;;;;;;;;;;;;;;;;;;;;;;;;;;;;;;;;;;;;;;;;;;;;;;;;;;;;;;;;;;;;;;;;;;;;;;;;;;;;;;;;;;;;;;;;;;;;;;;;;;;;;;;;;;;;;;;;;;;;;;;;;;;;;;;;;;;;;;;;;;;;;;;;;;;;;;;;;;;;;;;;;;;;;;;;;;;;;;;;;;;;;;;;;;;;;;;
1980;[10737] MAURY R. C. (1980);samp. CP6;;EUROPEAN OROGENIC BELT - CENOZOIC/QUATERNARY / FRANCE / FRENCH MASSIF CENTRAL / CHAINE DES PUYS;CLIERZOU;45.67;2.98;45.67;2.98;;;OUTCROP;;;SUBAERIAL;VOLCANIC ROCK;BENMOREITE;;;;;CENOZOIC;;;;;;;MINERAL / COMPONENT (INCL. GROUNDMASS);PYROXENE;;PHENOCRYST;RIM;PRIMARY;;;;;49.83;1.19;;;;5.09;0.03;;;;;;;;2.5;8.89;6.37;;19.58;14.78;0.27;;;;;;0;EMP (EPMA);;;0.55;;;;;;;;;;;;;;;;;;;;;;;;;;;;;;;;;;;;;;;;;;;;;;;;;;;;;;;;;;;;;;;;;;;;;;;;;;;;;;;;;;;;;;;;;;;;;;;;;;;;;;;;;;;;;;;;;;;;;;;;;;;;;;;;;;;;;;;;;;;;;;;;;;;;;;;;;;;;;;;;;;;;;;;;;;;;;;;;;;;;;;;;;;;;;;;;;;;;;;;;;;;;;;;;;;;;;;;;;;;;;;;;;;;;;;;;;;;;;;;;;;;;;;;;;;;;;;;;;;;;;;;;;;;;
1980;[10737] MAURY R. C. (1980);samp. CP6;;EUROPEAN OROGENIC BELT - CENOZOIC/QUATERNARY / FRANCE / FRENCH MASSIF CENTRAL / CHAINE DES PUYS;CLIERZOU;45.67;2.98;45.67;2.98;;;OUTCROP;;;SUBAERIAL;VOLCANIC ROCK;BENMOREITE;;;;;CENOZOIC;;;;;;;MINERAL / COMPONENT (INCL. GROUNDMASS);PYROXENE;;MICROCRYST;;PRIMARY;;;;;50.41;1.16;;;;4.69;0.06;;;;;;;;0.37;8.48;8.81;;18.79;15.12;0.08;;;;;;0;EMP (EPMA);;;0.29;;;;;;;;;;;;;;;;;;;;;;;;;;;;;;;;;;;;;;;;;;;;;;;;;;;;;;;;;;;;;;;;;;;;;;;;;;;;;;;;;;;;;;;;;;;;;;;;;;;;;;;;;;;;;;;;;;;;;;;;;;;;;;;;;;;;;;;;;;;;;;;;;;;;;;;;;;;;;;;;;;;;;;;;;;;;;;;;;;;;;;;;;;;;;;;;;;;;;;;;;;;;;;;;;;;;;;;;;;;;;;;;;;;;;;;;;;;;;;;;;;;;;;;;;;;;;;;;;;;;;;;;;;;;
1980;[10737] MAURY R. C. (1980);samp. CP6;;EUROPEAN OROGENIC BELT - CENOZOIC/QUATERNARY / FRANCE / FRENCH MASSIF CENTRAL / CHAINE DES PUYS;CLIERZOU;45.67;2.98;45.67;2.98;;;OUTCROP;;;SUBAERIAL;VOLCANIC ROCK;BENMOREITE;;;;;CENOZOIC;;;;;;;MINERAL / COMPONENT (INCL. GROUNDMASS);PYROXENE;;MICROCRYST;;PRIMARY;;;;;49.59;1.21;;;;5.1;0.07;;;;;;;;2.29;7.82;5.76;;19.37;14.88;0.16;;;;;;0;EMP (EPMA);;;0.66;;;;;;;;;;;;;;;;;;;;;;;;;;;;;;;;;;;;;;;;;;;;;;;;;;;;;;;;;;;;;;;;;;;;;;;;;;;;;;;;;;;;;;;;;;;;;;;;;;;;;;;;;;;;;;;;;;;;;;;;;;;;;;;;;;;;;;;;;;;;;;;;;;;;;;;;;;;;;;;;;;;;;;;;;;;;;;;;;;;;;;;;;;;;;;;;;;;;;;;;;;;;;;;;;;;;;;;;;;;;;;;;;;;;;;;;;;;;;;;;;;;;;;;;;;;;;;;;;;;;;;;;;;;;
1980;[10737] MAURY R. C. (1980);samp. CP6;;EUROPEAN OROGENIC BELT - CENOZOIC/QUATERNARY / FRANCE / FRENCH MASSIF CENTRAL / CHAINE DES PUYS;CLIERZOU;45.67;2.98;45.67;2.98;;;OUTCROP;;;SUBAERIAL;VOLCANIC ROCK;BENMOREITE;;;;;CENOZOIC;;;;;;;MINERAL / COMPONENT (INCL. GROUNDMASS);PYROXENE;;MICROCRYST;;PRIMARY;;;;;49.47;1.25;;;;5.1;0.08;;;;;;;;3.36;8.35;5.33;;19.3;15.1;0.01;;;;;;0;EMP (EPMA);;;0.61;;;;;;;;;;;;;;;;;;;;;;;;;;;;;;;;;;;;;;;;;;;;;;;;;;;;;;;;;;;;;;;;;;;;;;;;;;;;;;;;;;;;;;;;;;;;;;;;;;;;;;;;;;;;;;;;;;;;;;;;;;;;;;;;;;;;;;;;;;;;;;;;;;;;;;;;;;;;;;;;;;;;;;;;;;;;;;;;;;;;;;;;;;;;;;;;;;;;;;;;;;;;;;;;;;;;;;;;;;;;;;;;;;;;;;;;;;;;;;;;;;;;;;;;;;;;;;;;;;;;;;;;;;;;
1980;[10737] MAURY R. C. (1980);samp. CP6;;EUROPEAN OROGENIC BELT - CENOZOIC/QUATERNARY / FRANCE / FRENCH MASSIF CENTRAL / CHAINE DES PUYS;CLIERZOU;45.67;2.98;45.67;2.98;;;OUTCROP;;;SUBAERIAL;VOLCANIC ROCK;BENMOREITE;;;;;CENOZOIC;;;;;;;MINERAL / COMPONENT (INCL. GROUNDMASS);AMPHIBOLE;;PHENOCRYST;CORE;PRIMARY;;;;;39.85;4.13;;;;13.35;0;;;;;;;;;15.12;;;10.63;11.27;0.34;;;;;;1.11;EMP (EPMA);;;3.04;;;;;;;;;;;;;;;;;;;;;;;;;;;;;;;;;;;;;;;;;;;;;;;;;;;;;;;;;;;;;;;;;;;;;;;;;;;;;;;;;;;;;;;;;;;;;;;;;;;;;;;;;;;;;;;;;;;;;;;;;;;;;;;;;;;;;;;;;;;;;;;;;;;;;;;;;;;;;;;;;;;;;;;;;;;;;;;;;;;;;;;;;;;;;;;;;;;;;;;;;;;;;;;;;;;;;;;;;;;;;;;;;;;;;;;;;;;;;;;;;;;;;;;;;;;;;;;;;;;;;;;;;;;;
1980;[10737] MAURY R. C. (1980);samp. CP6;;EUROPEAN OROGENIC BELT - CENOZOIC/QUATERNARY / FRANCE / FRENCH MASSIF CENTRAL / CHAINE DES PUYS;CLIERZOU;45.67;2.98;45.67;2.98;;;OUTCROP;;;SUBAERIAL;VOLCANIC ROCK;BENMOREITE;;;;;CENOZOIC;;;;;;;MINERAL / COMPONENT (INCL. GROUNDMASS);AMPHIBOLE;;PHENOCRYST;RIM;PRIMARY;;;;;40.1;3.59;;;;12.38;0;;;;;;;;;14.86;;;10.57;11.48;0.57;;;;;;1.33;EMP (EPMA);;;2.65;;;;;;;;;;;;;;;;;;;;;;;;;;;;;;;;;;;;;;;;;;;;;;;;;;;;;;;;;;;;;;;;;;;;;;;;;;;;;;;;;;;;;;;;;;;;;;;;;;;;;;;;;;;;;;;;;;;;;;;;;;;;;;;;;;;;;;;;;;;;;;;;;;;;;;;;;;;;;;;;;;;;;;;;;;;;;;;;;;;;;;;;;;;;;;;;;;;;;;;;;;;;;;;;;;;;;;;;;;;;;;;;;;;;;;;;;;;;;;;;;;;;;;;;;;;;;;;;;;;;;;;;;;;;
1980;[10737] MAURY R. C. (1980);samp. CP5;;EUROPEAN OROGENIC BELT - CENOZOIC/QUATERNARY / FRANCE / FRENCH MASSIF CENTRAL / CHAINE DES PUYS;PUY DE LA NUGERE;45.67;2.98;45.67;2.98;;;OUTCROP;;;SUBAERIAL;VOLCANIC ROCK;BENMOREITE;;;;;CENOZOIC;;;;;;;MINERAL / COMPONENT (INCL. GROUNDMASS);PLAGIOCLASE;;;;PRIMARY;;;;;58.23;0.04;;;;26.13;0.01;;;;;;;;;0.2;;;8.42;0;0;;;;;;0.65;EMP (EPMA);;;6.26;;;;;;;;;;;;;;;;;;;;;;;;;;;;;;;;;;;;;;;;;;;;;;;;;;;;;;;;;;;;;;;;;;;;;;;;;;;;;;;;;;;;;;;;;;;;;;;;;;;;;;;;;;;;;;;;;;;;;;;;;;;;;;;;;;;;;;;;;;;;;;;;;;;;;;;;;;;;;;;;;;;;;;;;;;;;;;;;;;;;;;;;;;;;;;;;;;;;;;;;;;;;;;;;;;;;;;;;;;;;;;;;;;;;;;;;;;;;;;;;;;;;;;;;;;;;;;;;;;;;;;;;;;;;
1980;[10737] MAURY R. C. (1980);samp. CP5;;EUROPEAN OROGENIC BELT - CENOZOIC/QUATERNARY / FRANCE / FRENCH MASSIF CENTRAL / CHAINE DES PUYS;PUY DE LA NUGERE;45.67;2.98;45.67;2.98;;;OUTCROP;;;SUBAERIAL;VOLCANIC ROCK;BENMOREITE;;;;;CENOZOIC;;;;;;;MINERAL / COMPONENT (INCL. GROUNDMASS);PLAGIOCLASE;;;;PRIMARY;;;;;55.16;0.04;;;;26.9;0;;;;;;;;;0.5;;;9.89;0;0;;;;;;0.54;EMP (EPMA);;;5.51;;;;;;;;;;;;;;;;;;;;;;;;;;;;;;;;;;;;;;;;;;;;;;;;;;;;;;;;;;;;;;;;;;;;;;;;;;;;;;;;;;;;;;;;;;;;;;;;;;;;;;;;;;;;;;;;;;;;;;;;;;;;;;;;;;;;;;;;;;;;;;;;;;;;;;;;;;;;;;;;;;;;;;;;;;;;;;;;;;;;;;;;;;;;;;;;;;;;;;;;;;;;;;;;;;;;;;;;;;;;;;;;;;;;;;;;;;;;;;;;;;;;;;;;;;;;;;;;;;;;;;;;;;;;
1980;[10737] MAURY R. C. (1980);samp. CP5;;EUROPEAN OROGENIC BELT - CENOZOIC/QUATERNARY / FRANCE / FRENCH MASSIF CENTRAL / CHAINE DES PUYS;PUY DE LA NUGERE;45.67;2.98;45.67;2.98;;;OUTCROP;;;SUBAERIAL;VOLCANIC ROCK;BENMOREITE;;;;;CENOZOIC;;;;;;;MINERAL / COMPONENT (INCL. GROUNDMASS);(AL)KALIFELDSPAR;;;;PRIMARY;;;;;64.83;0.04;;;;19.98;0.02;;;;;;;;;0.31;;;1.91;0;0.02;;;;;;4.47;EMP (EPMA);;;7.11;;;;;;;;;;;;;;;;;;;;;;;;;;;;;;;;;;;;;;;;;;;;;;;;;;;;;;;;;;;;;;;;;;;;;;;;;;;;;;;;;;;;;;;;;;;;;;;;;;;;;;;;;;;;;;;;;;;;;;;;;;;;;;;;;;;;;;;;;;;;;;;;;;;;;;;;;;;;;;;;;;;;;;;;;;;;;;;;;;;;;;;;;;;;;;;;;;;;;;;;;;;;;;;;;;;;;;;;;;;;;;;;;;;;;;;;;;;;;;;;;;;;;;;;;;;;;;;;;;;;;;;;;;;;
1980;[10737] MAURY R. C. (1980);samp. CP6;;EUROPEAN OROGENIC BELT - CENOZOIC/QUATERNARY / FRANCE / FRENCH MASSIF CENTRAL / CHAINE DES PUYS;CLIERZOU;45.67;2.98;45.67;2.98;;;OUTCROP;;;SUBAERIAL;VOLCANIC ROCK;BENMOREITE;;;;;CENOZOIC;;;;;;;MINERAL / COMPONENT (INCL. GROUNDMASS);PLAGIOCLASE;;;;PRIMARY;;;;;59.21;0.01;;;;25.66;0;;;;;;;;;0.33;;;7.71;0.04;0;;;;;;0.64;EMP (EPMA);;;6.11;;;;;;;;;;;;;;;;;;;;;;;;;;;;;;;;;;;;;;;;;;;;;;;;;;;;;;;;;;;;;;;;;;;;;;;;;;;;;;;;;;;;;;;;;;;;;;;;;;;;;;;;;;;;;;;;;;;;;;;;;;;;;;;;;;;;;;;;;;;;;;;;;;;;;;;;;;;;;;;;;;;;;;;;;;;;;;;;;;;;;;;;;;;;;;;;;;;;;;;;;;;;;;;;;;;;;;;;;;;;;;;;;;;;;;;;;;;;;;;;;;;;;;;;;;;;;;;;;;;;;;;;;;;;
1980;[10737] MAURY R. C. (1980);samp. CP6;;EUROPEAN OROGENIC BELT - CENOZOIC/QUATERNARY / FRANCE / FRENCH MASSIF CENTRAL / CHAINE DES PUYS;CLIERZOU;45.67;2.98;45.67;2.98;;;OUTCROP;;;SUBAERIAL;VOLCANIC ROCK;BENMOREITE;;;;;CENOZOIC;;;;;;;MINERAL / COMPONENT (INCL. GROUNDMASS);PLAGIOCLASE;;;;PRIMARY;;;;;59.52;0;;;;25.48;0;;;;;;;;;0.51;;;7.02;0.06;0;;;;;;0.96;EMP (EPMA);;;7.03;;;;;;;;;;;;;;;;;;;;;;;;;;;;;;;;;;;;;;;;;;;;;;;;;;;;;;;;;;;;;;;;;;;;;;;;;;;;;;;;;;;;;;;;;;;;;;;;;;;;;;;;;;;;;;;;;;;;;;;;;;;;;;;;;;;;;;;;;;;;;;;;;;;;;;;;;;;;;;;;;;;;;;;;;;;;;;;;;;;;;;;;;;;;;;;;;;;;;;;;;;;;;;;;;;;;;;;;;;;;;;;;;;;;;;;;;;;;;;;;;;;;;;;;;;;;;;;;;;;;;;;;;;;;
1980;[10737] MAURY R. C. (1980);samp. CP6;;EUROPEAN OROGENIC BELT - CENOZOIC/QUATERNARY / FRANCE / FRENCH MASSIF CENTRAL / CHAINE DES PUYS;CLIERZOU;45.67;2.98;45.67;2.98;;;OUTCROP;;;SUBAERIAL;VOLCANIC ROCK;BENMOREITE;;;;;CENOZOIC;;;;;;;MINERAL / COMPONENT (INCL. GROUNDMASS);(AL)KALIFELDSPAR;;;;PRIMARY;;;;;66.1;0.06;;;;19.14;0;;;;;;;;;0.48;;;0.66;0;0;;;;;;7.22;EMP (EPMA);;;6.93;;;;;;;;;;;;;;;;;;;;;;;;;;;;;;;;;;;;;;;;;;;;;;;;;;;;;;;;;;;;;;;;;;;;;;;;;;;;;;;;;;;;;;;;;;;;;;;;;;;;;;;;;;;;;;;;;;;;;;;;;;;;;;;;;;;;;;;;;;;;;;;;;;;;;;;;;;;;;;;;;;;;;;;;;;;;;;;;;;;;;;;;;;;;;;;;;;;;;;;;;;;;;;;;;;;;;;;;;;;;;;;;;;;;;;;;;;;;;;;;;;;;;;;;;;;;;;;;;;;;;;;;;;;;
1998;[10748] AYDAR E. (1998);samp. E-131;;ANATOLIA-IRAN BELT / TURKEY / WESTERN ANATOLIAN VOLCANIC BELT / KOROGLU CALDERA;;38.88;30.8;38.88;30.8;;;OUTCROP;;;SUBAERIAL;VOLCANIC ROCK;BENMOREITE;;OUTER ZONE LAVA;;;NEOGENE;;;;;;;WHOLE ROCK;;;;;;;;;;54.16;1.97;;;;11.3;;;;;;;;7.12;;;;;6.67;4.81;0.08;;;;;;2.29;NOT;;;4.51;1.05;;;;;;;;;;;;5.3;;;;;;;;;;;;;;;;;;;;;;;;;;;;;;149;NOT;;;741;NOT;;;41;NOT;;;345;NOT;;;;;;;;;;;28;NOT;;;;;;;299;NOT;;;;;1049;NOT;;;;;45;NOT;;;1341;NOT;;;36;NOT;;;;;;;;;;;;;;;;;960;NOT;;;;;;;;;;;;;;;;;;;;;;;;;;;;;;;;;;;;;;;;;;;;;;;;;;;;;;;;;;;;;;;;;;;;;;;;;;;;;;;;;;;;;;;;;;;;;;;;;;;;;;;;;;;;;;;;;;;;;;;;;;;;;;;;;;;;;;;;;;;;;;;;;;;;;;;;;;
1982;[10778] HASHAD A. H. (1982);samp. 67;209299;EAST SAHARA SWELL - CRETACEOUS / EGYPT / NATASH VOLCANIC FIELD;;24.42;33.43;24.42;33.43;;;OUTCROP;;;SUBAERIAL;VOLCANIC ROCK;BENMOREITE;;;;;CRETACEOUS;UPPER;;;;;;WHOLE ROCK;;;;;;;;;;52.06;1.01;;;;15.17;;;;;;;;;4.9;;7.41;;6.21;4.07;0.16;;;;;;2.31;NOT;;;5.34;1.2;;0.7;;;0.3;;;;;;;;;;;;;;;;;;;;;;;;;;;;;;;;;;;;;;;;;;;;;;;;;;;;;;;;;;;;;;;;;;;;;;;;;;;;;;;;;;;;;;;;;;;;;;;;;;;;;;;;;;;;;;;;;;;;;;;;;;;;;;;;;;;;;;;;;;;;;;;;;;;;;;;;;;;;;;;;;;;;;;;;;;;;;;;;;;;;;;;;;;;;;;;;;;;;;;;;;;;;;;;;;;;;;;;;;;;;;;;;;;;;;;;;;;;;;;;;;;;;;;;;;;;;;;;;;;;;;;