Year;CITATION;SAMPLE NAME;UNIQUE_ID;LOCATION;LOCATION COMMENT;LATITUDE (MIN.);LONGITUDE (MIN.);LATITUDE (MAX.);LONGITUDE (MAX.);ELEVATION (MIN.);ELEVATION (MAX.);SAMPLING TECHNIQUE;DRILLING DEPTH (MIN.);DRILLING DEPTH (MAX.);LAND/SEA (SAMPLING);ROCK TYPE;ROCK NAME;ROCK TEXTURE;SAMPLE COMMENT;AGE (MIN.);AGE (MAX.);GEOLOGICAL AGE;GEOLOGICAL AGE PREFIX;ERUPTION DAY;ERUPTION MONTH;ERUPTION YEAR;ALTERATION;ALTERATION TYPE;TYPE OF MATERIAL;MINERAL / COMPONENT;SPOT (MINERAL);CRYSTAL;RIM / CORE (MINERAL GRAINS);PRIMARY/SECONDARY;INCLUSION TYPE;MINERAL (INCLUSION);HOSTMINERAL (INCLUSION);HEATING;SIO2(WT%);TIO2(WT%);ZRO2(WT%);HFO2(WT%);THO2(WT%);AL2O3(WT%);CR2O3(WT%);LA2O3(WT%);CE2O3(WT%);ND2O3(WT%);SM2O3(WT%);V2O3(WT%);NB2O5(WT%);FE2O3T(WT%);FE2O3(WT%);FEOT(WT%);FEO(WT%);FET(WT%);CAO(WT%);MGO(WT%);MNO(WT%);BAO(WT%);SRO(WT%);NIO(WT%);ZNO(WT%);RB2O(WT%);K2O(WT%);;;;NA2O(WT%);P2O5(WT%);AS2O5(WT%);H2O(WT%);H2OP(WT%);H2OM(WT%);CO2(WT%);C(WT%);F(WT%);CL(WT%);OH(WT%);SO3(WT%);S(WT%);LOI(WT%);TI(WT%);CA(WT%);K(WT%);LI(PPM);BE(PPM);B(PPM);F(PPM);P(PPM);S(PPM);CL(PPM);AR40(AT/G);;;;AR40(CCMSTP/G);;;;AR40(MOL/G);;;;AR40(PPB);K(PPM);SC(PPM);;;;TI(PPM);V(PPM);;;;CR(PPM);;;;CO(PPM);;;;NI(PPM);;;;CU(PPM);;;;ZN(PPM);;;;GA(PPM);;;;GE(PPM);AS(PPM);AS(PPB);SE(PPM);RB(PPM);;;;;;SR(PPM);;;;;;Y(PPM);;;;ZR(PPM);;;;NB(PPM);;;;MO(PPM);AG(PPM);CD(PPM);IN(PPM);SN(PPM);SB(PPM): altern. values or methods;;;;TE(PPM);CS(PPM): altern. values or methods;;;;BA(PPM): altern. values or methods;;;;LA(PPM): altern. values or methods;;;;CE(PPM): altern. values or methods;;;;PR(PPM);ND(PPM): altern. values or methods;;;;;;SM(PPM): altern. values or methods;;;;EU(PPM): altern. values or methods;;;;GD(PPM): altern. values or methods;;;;TB(PPM): altern. values or methods;;;;DY(PPM): altern. values or methods;;;;HO(PPM);ER(PPM): altern. values or methods;;;;TM(PPM);YB(PPM): altern. values or methods;;;;LU(PPM);HF(PPM);TA(PPM);W(PPM);RE(PPM);AU(PPM);HG(PPM);HG(PPB);TL(PPM);PB(PPM): altern. values or methods;;;;BI(PPM);PO210_ACT(DPM/G);RA226_ACT(DPM/G);TH(PPM): altern. values or methods;;;;U(PPM): altern. values or methods;;;;ND143_ND144;ND143_ND144_INI;EPSILON_ND;EPSILON_ND_INI;SM147_ND144;SR87_SR86;SR87_SR86_INI;EPSILON_SR_INI;RB87_SR86;PB206_PB204: altern. values or methods;;;;PB206_PB204_INI;PB207_PB204: altern. values or methods;;;;PB207_PB204_INI;PB207_PB206;PB208_PB204: altern. values or methods;;;;PB208_PB204_INI;PB208_PB206;HF176_HF177;LU176_HF177;AR38_AR36;AR40_AR36;AR40_AR36_INI;PB206_U238;PB207_U235;RA226_TH230_ACT;PA231_U235_ACT;TH230_TH232_ACT;TH230_U238_ACT;TH232_PB204;U234_U238_ACT;U235_PB204;U238_PB204;U238_TH232_ACT;D7LI(VS LSVEC);D13C(VS PDB);D18O(PER MIL);D18O(VS SMOW);D18O(VS VSMOW);D34S(VS VCDT);ALBITE(MOL%);ANORTHITE(MOL%);CA OLIVINE(MOL%);CHROMITE(MOL%);ENSTATITE(MOL%);FAYALITE(MOL%);FORSTERITE(MOL%);FERROSILITE(MOL%);HEMATITE(MOL%);HERCYNITE(MOL%);ILMENITE(MOL%);MAGNESIOFERRITE(MOL%);MONTICELLITE(MOL%);MAGNETITE(MOL%);ORTHOCLASE(MOL%);PICROCHROMITE(MOL%);SPINEL(MOL%);TEPHROITE(MOL%);ULVOSPINEL(MOL%);WOLLASTONITE(MOL%);AGE(KA): altern. values or methods;;;;;;AGE(MA): altern. values or methods;;;;;;AGE_PB207_U235(MA);AGE_PB206_U238(MA);
1995;[7782] ROCHOLL A. (1995);samp. CL-1;;ANTARCTICA / WEST ANTARCTIC RIFT SYSTEM / ROSS SEA RIFT;COULMAN ISLAND, TRANSANTARCTIC MOUNTAINS, MCMURDO VOLCANIC GROUP;-73.4883;169.5767;-73.4883;169.5767;;;OUTCROP;;;SUBAERIAL;VOLCANIC ROCK;BENMOREITE;;;;;NEOGENE;;;;;;;WHOLE ROCK;;;;;;;;;;;;;;;;;;;;;;;;;;;;;;;;;;;;;;;;;;;;;;;;;;;;;;;;;;;;;;;;;;;;;;;;;;;;;;;;;;;;;;;;;;;;;;;;;;;;;;;;;;;;;;;;;;;;;;;;;;;;;;;;;;;;;;;;;;;;;;;;;;;;;;;;;;;;;;;;;;;;;;;;;;;;;;;;;;;;;;;;;;;;;;;;;;;;;;;;;;;;;;;;;;;;;;;;;;;;;;;;;;0.512942;;;;;0.702918;;;;;;;;;;;;;;;;;;;;;;;;;;;;;;;;;;;;;;;;;;;;;;;;;;;;;;;;;;;;;;;;;;;;;;;;;;;;;
1999;[7824] WEDEPOHL K. H. (1999);samp. 2615;142036;EUROPEAN OROGENIC BELT - CENOZOIC/QUATERNARY / GERMANY / EIFEL;BOCKSBERG;50.4;6.8;50.4;6.8;;;OUTCROP;;;SUBAERIAL;VOLCANIC ROCK;BENMOREITE;;;;;CENOZOIC;;;;;;;WHOLE ROCK;;;;;;;;;;;;;;;;;;;;;;;;;;;;;;;;;;;;;;;;;;;;;;;;;;;;;;;;;;;;;;;;;;;;;;;;;;;;;;;;;;;;;;;;;;;;;;;;;;;;;;;;;;;;;;;;;;;;;;;;;;;;;;;;;;;;;;;;;;;;;;;;;;;;;;;;;;;;;;;;;;;;;;;;;;;;;;;;;;;;;;;;;;;;;;;;;;;;;;;;;;;;;;;;;;;;;;;;;;;;;;;;;;;;;;;;;;;19.459;TIMS;;;;15.622;TIMS;;;;;39.352;TIMS;;;;;;;;;;;;;;;;;;;;;;;;;;;;;;;;;;;;;;;;;;;;;;;;;;;;;;;;;;;;;
2002;[7933] BLAIS S. (2002);samp. MU11;147351;SOCIETY ISLANDS / MAUPITI / POST-SHIELD STAGE;;-16.422;-152.262;-16.438;-152.281;;;OUTCROP;;;SUBAERIAL;VOLCANIC ROCK;BENMOREITE;;DIKE;4210000;4210000;PLIOCENE;;;;;;;WHOLE ROCK;;;;;;;;;;57;1.46;;;;18.5;;;;;;;;6;;;;;4.32;1.49;0.11;;;;;;4.58;ICPAES;;;5.45;0.53;;;;;;;;;;;;0.9;;;;;;;;;;;;;;;;;;;;;;;;;6.6;ICPAES;;;;91;ICPAES;;;10;ICPAES;;;10;ICPAES;;;10;ICPAES;;;;;;;;;;;;;;;;;;;131;ICPAES;128.6;ICPMS;;;600;ICPAES;576;ICPMS;;;34.5;ICPAES;;;557;ICPAES;611;ICPMS;61.5;ICPAES;65.5;ICPMS;;;;;;;;;;;0.33;ICPMS;;;795;ICPAES;761;ICPMS;72;ICPAES;67.2;ICPMS;132;ICPAES;132;ICPMS;14.2;56;ICPAES;53.2;ICPMS;;;9.18;ICPMS;;;2.73;ICPAES;2.58;ICPMS;8.5;ICPAES;8.22;ICPMS;1.11;ICPMS;;;6.5;ICPAES;6.46;ICPMS;1.16;3.4;ICPAES;3.03;ICPMS;0.412;2.6;ICPAES;2.55;ICPMS;0.393;12.15;4.36;;;;;;;11.06;ICPMS;;;;;;17.35;ICPAES;16.84;ICPMS;1.54;ICPMS;;;0.512781;;;;;0.705056;;;;18.956;TIMS;;;;15.593;TIMS;;;;;38.669;TIMS;;;;;;;;;;;;;;;;;;;;;;;;;;;;;;;;;;;;;;;;;;;;;;;;;;;;;;;;;;;;;
2002;[7933] BLAIS S. (2002);samp. MU11;147351;SOCIETY ISLANDS / MAUPITI / POST-SHIELD STAGE;;-16.422;-152.262;-16.438;-152.281;;;OUTCROP;;;SUBAERIAL;VOLCANIC ROCK;BENMOREITE;;DIKE;4210000;4210000;PLIOCENE;;;;;;;MINERAL / COMPONENT (INCL. GROUNDMASS);GROUNDMASS;;;;PRIMARY;;;;;;;;;;;;;;;;;;;;;;;;;;;;;;;;;;;;;;;;;;;;;;;;;;;4.35;;;;;;;;;;;;;;;;3.174E-11;NOT;;;;;;;;;;;;;;;;;;;;;;;;;;;;;;;;;;;;;;;;;;;;;;;;;;;;;;;;;;;;;;;;;;;;;;;;;;;;;;;;;;;;;;;;;;;;;;;;;;;;;;;;;;;;;;;;;;;;;;;;;;;;;;;;;;;;;;;;;;;;;;;;;;;;;;;;;;;;;;;;;;;;;;;;;;;;;;;;;;;;;;;;;;;;;;;;;;;;;;;;;;;;;;;;;;;;;;;;;;;;;;;;;;;4.2;K-AR;;;;;;;
2002;[7933] BLAIS S. (2002);samp. MU11;147351;SOCIETY ISLANDS / MAUPITI / POST-SHIELD STAGE;;-16.422;-152.262;-16.438;-152.281;;;OUTCROP;;;SUBAERIAL;VOLCANIC ROCK;BENMOREITE;;DIKE;4210000;4210000;PLIOCENE;;;;;;;MINERAL / COMPONENT (INCL. GROUNDMASS);GROUNDMASS;;;;PRIMARY;;;;;;;;;;;;;;;;;;;;;;;;;;;;;;;;;;;;;;;;;;;;;;;;;;;;;;;;;;;;;;;;;;;3.181E-11;NOT;;;;;;;;;;;;;;;;;;;;;;;;;;;;;;;;;;;;;;;;;;;;;;;;;;;;;;;;;;;;;;;;;;;;;;;;;;;;;;;;;;;;;;;;;;;;;;;;;;;;;;;;;;;;;;;;;;;;;;;;;;;;;;;;;;;;;;;;;;;;;;;;;;;;;;;;;;;;;;;;;;;;;;;;;;;;;;;;;;;;;;;;;;;;;;;;;;;;;;;;;;;;;;;;;;;;;;;;;;;;;;;;;;;4.21;K-AR;;;;;;;
2003;[7952] SHERROD D. R.(2003)  [GeoReM [1194] ];samp. NHK43;;HAWAIIAN ISLANDS / MAUI / HALEAKALA / POST-SHIELD STAGE / HANA SERIES;;20.7607;-156.2522;20.7607;-156.2522;;;OUTCROP;;;SUBAERIAL;VOLCANIC ROCK;BENMOREITE;;;;;;;;;;;;WHOLE ROCK;;;;;;;;;;53.4;1.506;;;;18.63;;;;;;;;;;8.91;;;5.44;1.91;0.26;;;;;;2.7;AES;2.73;XRF;6.43;0.79;;;;;;;;;;;;;;;;;;;;;;;;;;;3.33E-09;MS;;;;;;;;;7;XRF;;;;29;XRF;;;0;XRF;;;;;;;1;XRF;;;6;XRF;;;137;XRF;;;24;XRF;;;;;;;73;XRF;;;;;984;XRF;;;;;34;XRF;;;387;XRF;;;91.8;XRF;;;;;;;;;;;;;;;;;1047;XRF;;;63;XRF;;;119;XRF;;;;;;;;;;;;;;;;;;;;;;;;;;;;;;;;;;;;;;;;;;;;;;;;;6;XRF;;;;;;9;XRF;;;;;;;;;;;;;;;;;;;;;;;;;;;;;;;;;;;;;;;;;;;;;;;;;;;;;;;;;;;;;;;;;;;;;;;;;;;;;;;;;0.038;K-AR;;;;;;;
2003;[7952] SHERROD D. R.(2003)  [GeoReM [1194] ];samp. NHK11;;HAWAIIAN ISLANDS / MAUI / HALEAKALA / POST-SHIELD STAGE / KULA SERIES;;20.7484;-156.2207;20.7484;-156.2207;;;OUTCROP;;;SUBAERIAL;VOLCANIC ROCK;BENMOREITE;;LOWER PART OF KULA SERIES;;;;;;;;;;WHOLE ROCK;;;;;;;;;;55.73;2.108;;;;16.87;;;;;;;;;;8.47;;;5.19;2.39;0.196;;;;;;2.87;AES;2.9;XRF;5.5;0.64;;;;;;;;;;;;;;;;;;;;;;;;;;;8.774E-08;MS;;;;;;;;;12;XRF;;;;96;XRF;;;1;XRF;;;;;;;3;XRF;;;18;XRF;;;167;XRF;;;27;XRF;;;;;;;49;XRF;;;;;504;XRF;;;;;59;XRF;;;883;XRF;;;66.4;XRF;;;;;;;;;;;;;;;;;884;XRF;;;64;XRF;;;135;XRF;;;;;;;;;;;;;;;;;;;;;;;;;;;;;;;;;;;;;;;;;;;;;;;;;1;XRF;;;;;;5;XRF;;;;;;;;;;;;;;;;;;;;;;;;;;;;;;;;;;;;;;;;;;;;;;;;;;;;;;;;;;;;;;;;;;;;;;;;;;;;;;;;;0.948;K-AR;;;;;;;
1994;[8028] NONO A. (1994);samp. 192;;MID-AFRICAN RIFT SYSTEM / CAMEROON LINE (CONTINENTAL SECTION) / ADAMAWA (ADAMAOUA) PLATEAU / TCHABAL NGANHA;;7.33;13.92;7.42;14.08;;;OUTCROP;;;SUBAERIAL;VOLCANIC ROCK;BENMOREITE;;;;;NEOGENE;;;;;;;WHOLE ROCK;;;;;;;;;;50.41;2.03;;;;18.48;;;;;;;;8.62;;;;;7.45;2.02;0.23;;;;;;2.52;NOT;;;4.97;0.85;;;;;;;;;;;;2.21;;;;;;;;;;;;;;;;;;;;;;;;;;;;;;106;NOT;;;11;NOT;;;15;NOT;;;12;NOT;;;0;NOT;;;;;;;;;;;;;;;65;NOT;;;;;1422;NOT;;;;;44.7;NOT;;;;;;;;;;;;;;;;;;;;;;;;;751;NOT;;;86.42;NOT;;;163.07;NOT;;;;;;;;;;14.19;NOT;;;4.23;NOT;;;11.5;NOT;;;;;;;7.89;NOT;;;;3.43;NOT;;;;3.03;NOT;;;0.43;;;;;;;;;;;;;;;;;;;;;;;;;;;;;;;;;;;;;;;;;;;;;;;;;;;;;;;;;;;;;;;;;;;;;;;;;;;;;;;;;;;;;;;;;;;;;;;;;;;;;;;;;;
1994;[8028] NONO A. (1994);samp. 11B;;MID-AFRICAN RIFT SYSTEM / CAMEROON LINE (CONTINENTAL SECTION) / ADAMAWA (ADAMAOUA) PLATEAU / TCHABAL NGANHA;;7.33;13.92;7.42;14.08;;;OUTCROP;;;SUBAERIAL;VOLCANIC ROCK;BENMOREITE;;;;;NEOGENE;;;;;;;WHOLE ROCK;;;;;;;;;;52.55;1.93;;;;15.11;;;;;;;;3.24;;;;;5.11;3.4;0.19;;;;;;3.59;NOT;;;3.48;0.36;;;;;;;;;;;;5.87;;;;;;;;;;;;;;;;;;;;;;;;;;;;;;117;NOT;;;57;NOT;;;26;NOT;;;48;NOT;;;0;NOT;;;;;;;;;;;;;;;137;NOT;;;;;1357;NOT;;;;;;;;;;;;;;;;;;;;;;;;;;;;;;;524;NOT;;;;;;;;;;;;;;;;;;;;;;;;;;;;;;;;;;;;;;;;;;;;;;;;;;;;;;;;;;;;;;;;;;;;;;;;;;;;;;;;;;;;;;;;;;;;;;;;;;;;;;;;;;;;;;;;;;;;;;;;;;;;;;;;;;;;;;;;;;;;;;;;;;;;;;;;;;
1994;[8028] NONO A. (1994);samp. 254;;MID-AFRICAN RIFT SYSTEM / CAMEROON LINE (CONTINENTAL SECTION) / ADAMAWA (ADAMAOUA) PLATEAU / TCHABAL NGANHA;;7.33;13.92;7.42;14.08;;;OUTCROP;;;SUBAERIAL;VOLCANIC ROCK;BENMOREITE;;;;;NEOGENE;;;;;;;WHOLE ROCK;;;;;;;;;;54.95;0.6;;;;16.24;;;;;;;;6.36;;;;;1.56;0.18;0.14;;;;;;2.02;NOT;;;2.43;0.08;;;;;;;;;;;;17.99;;;;;;;;;;;;;;;;;;;;;;;;;;;;;;39;NOT;;;13;NOT;;;13;NOT;;;15;NOT;;;0;NOT;;;;;;;;;;;;;;;39;NOT;;;;;105;NOT;;;;;;;;;;;;;;;;;;;;;;;;;;;;;;;68;NOT;;;;;;;;;;;;;;;;;;;;;;;;;;;;;;;;;;;;;;;;;;;;;;;;;;;;;;;;;;;;;;;;;;;;;;;;;;;;;;;;;;;;;;;;;;;;;;;;;;;;;;;;;;;;;;;;;;;;;;;;;;;;;;;;;;;;;;;;;;;;;;;;;;;;;;;;;;
1994;[8028] NONO A. (1994);samp. 260;;MID-AFRICAN RIFT SYSTEM / CAMEROON LINE (CONTINENTAL SECTION) / ADAMAWA (ADAMAOUA) PLATEAU / TCHABAL NGANHA;;7.33;13.92;7.42;14.08;;;OUTCROP;;;SUBAERIAL;VOLCANIC ROCK;BENMOREITE;;;;;NEOGENE;;;;;;;WHOLE ROCK;;;;;;;;;;60.18;1.24;;;;16.64;;;;;;;;;;;;;2.29;0.5;0.36;;;;;;4.68;NOT;;;4.89;0.354;;;;;;;;;;;;1.5;;;;;;;;;;;;;;;;;;;;;;;;;;;;;;35;NOT;;;0;NOT;;;0;NOT;;;12;NOT;;;0;NOT;;;;;;;;;;;;;;;152;NOT;;;;;560;NOT;;;;;33.06;NOT;;;;;;;;;;;;;;;;;;;;;;;;;1200;NOT;;;86.79;NOT;;;157.9;NOT;;;;67.38;NOT;;;;;12.06;NOT;;;3.03;NOT;;;8.82;NOT;;;;;;;6.19;NOT;;;;2.68;NOT;;;;2.33;NOT;;;0.31;;;;;;;;;;;;;;;;;;;;;;;;;;;;;;;;;;;;;;;;;;;;;;;;;;;;;;;;;;;;;;;;;;;;;;;;;;;;;;;;;;;;;;;;;;;;;;;;;;;;;;;;;;
1994;[8028] NONO A. (1994);samp. 260;;MID-AFRICAN RIFT SYSTEM / CAMEROON LINE (CONTINENTAL SECTION) / ADAMAWA (ADAMAOUA) PLATEAU / TCHABAL NGANHA;;7.33;13.92;7.42;14.08;;;OUTCROP;;;SUBAERIAL;VOLCANIC ROCK;BENMOREITE;;;;;NEOGENE;;;;;;;MINERAL / COMPONENT (INCL. GROUNDMASS);CLINOPYROXENE;;PHENOCRYST;CORE;PRIMARY;;;;;51.32;1.05;;;;2.66;0;;;;;;;;1.91;;7.21;;19.8;15.02;0.41;;;;;;;;;;0.55;;;;;;;;;;;;;;;;;;;;;;;;;;;;;;;;;;;;;;;;;;;;;;;;;;;;;;;;;;;;;;;;;;;;;;;;;;;;;;;;;;;;;;;;;;;;;;;;;;;;;;;;;;;;;;;;;;;;;;;;;;;;;;;;;;;;;;;;;;;;;;;;;;;;;;;;;;;;;;;;;;;;;;;;;;;;;;;;;;;;;;;;;;;;;;;;;;;;;;;;;;;;;;;;;;;;;;;;;;;;;;;;;;;;;;;;;;;;;;;;;;;;;;;;;;;;;;;;;;;;;;;;;;;;
1994;[8028] NONO A. (1994);samp. 260;;MID-AFRICAN RIFT SYSTEM / CAMEROON LINE (CONTINENTAL SECTION) / ADAMAWA (ADAMAOUA) PLATEAU / TCHABAL NGANHA;;7.33;13.92;7.42;14.08;;;OUTCROP;;;SUBAERIAL;VOLCANIC ROCK;BENMOREITE;;;;;NEOGENE;;;;;;;MINERAL / COMPONENT (INCL. GROUNDMASS);CLINOPYROXENE;;PHENOCRYST;RIM;PRIMARY;;;;;52.03;0.83;;;;2.2;0;;;;;;;;1.77;;7.11;;19.98;15.42;0.35;;;;;;;;;;0.55;;;;;;;;;;;;;;;;;;;;;;;;;;;;;;;;;;;;;;;;;;;;;;;;;;;;;;;;;;;;;;;;;;;;;;;;;;;;;;;;;;;;;;;;;;;;;;;;;;;;;;;;;;;;;;;;;;;;;;;;;;;;;;;;;;;;;;;;;;;;;;;;;;;;;;;;;;;;;;;;;;;;;;;;;;;;;;;;;;;;;;;;;;;;;;;;;;;;;;;;;;;;;;;;;;;;;;;;;;;;;;;;;;;;;;;;;;;;;;;;;;;;;;;;;;;;;;;;;;;;;;;;;;;;
1994;[8028] NONO A. (1994);samp. 260;;MID-AFRICAN RIFT SYSTEM / CAMEROON LINE (CONTINENTAL SECTION) / ADAMAWA (ADAMAOUA) PLATEAU / TCHABAL NGANHA;;7.33;13.92;7.42;14.08;;;OUTCROP;;;SUBAERIAL;VOLCANIC ROCK;BENMOREITE;;;;;NEOGENE;;;;;;;MINERAL / COMPONENT (INCL. GROUNDMASS);PLAGIOCLASE;;PHENOCRYST;CORE;PRIMARY;;;;;56.07;;;;;26.95;;;;;;;;0.48;;;;;9.17;;;0.17;0.21;;;;0.69;EMP (EPMA);;;5.62;;;;;;;;;;;;;;;;;;;;;;;;;;;;;;;;;;;;;;;;;;;;;;;;;;;;;;;;;;;;;;;;;;;;;;;;;;;;;;;;;;;;;;;;;;;;;;;;;;;;;;;;;;;;;;;;;;;;;;;;;;;;;;;;;;;;;;;;;;;;;;;;;;;;;;;;;;;;;;;;;;;;;;;;;;;;;;;;;;;;;;;;;;;;;;;;;;;;;;;;;;;;;;;;;;;;;;;;;;;;;;;;;;;;;;;;;;50.44;45.5;;;;;;;;;;;;;4.06;;;;;;;;;;;;;;;;;;;;
1994;[8028] NONO A. (1994);samp. 260;;MID-AFRICAN RIFT SYSTEM / CAMEROON LINE (CONTINENTAL SECTION) / ADAMAWA (ADAMAOUA) PLATEAU / TCHABAL NGANHA;;7.33;13.92;7.42;14.08;;;OUTCROP;;;SUBAERIAL;VOLCANIC ROCK;BENMOREITE;;;;;NEOGENE;;;;;;;MINERAL / COMPONENT (INCL. GROUNDMASS);PLAGIOCLASE;;PHENOCRYST;RIM;PRIMARY;;;;;58.78;;;;;25.76;;;;;;;;0.43;;;;;7.69;;;0.17;0.22;;;;0.97;EMP (EPMA);;;6.55;;;;;;;;;;;;;;;;;;;;;;;;;;;;;;;;;;;;;;;;;;;;;;;;;;;;;;;;;;;;;;;;;;;;;;;;;;;;;;;;;;;;;;;;;;;;;;;;;;;;;;;;;;;;;;;;;;;;;;;;;;;;;;;;;;;;;;;;;;;;;;;;;;;;;;;;;;;;;;;;;;;;;;;;;;;;;;;;;;;;;;;;;;;;;;;;;;;;;;;;;;;;;;;;;;;;;;;;;;;;;;;;;;;;;;;;;;57.28;37.16;;;;;;;;;;;;;5.56;;;;;;;;;;;;;;;;;;;;
1997;[8053] PANTER K. S. (1997);samp. K166;;ANTARCTICA / WEST ANTARCTIC RIFT SYSTEM / MARIE BYRD LAND / MOUNT SIDLEY;WEIS VOLCANO;-77.1;-126.1;-77.1;-126.1;;;OUTCROP;;;SUBAERIAL;VOLCANIC ROCK;BENMOREITE;FINELY PORPHYRITIC, TRACHYTIC;;;;;;;;;;;WHOLE ROCK;;;;;;;;;;55.17;0.96;;;;17.62;;;;;;;;8.67;;;;;3.44;1.23;0.23;;;;;;4.76;XRF;;;5.71;0.35;;;;;;;;;;;;1.74;;;;;;;;;;;;;;;;;;;;;;;;;5.3;NOT;;;;3;NOT;;;;;;;;;;;4;NOT;;;16;NOT;;;109;NOT;;;29;NOT;;;;;;;176;NOT;;;;;199;NOT;;;;;79;NOT;;;1258;NOT;;;215;NOT;;;;;;;;0.1;NOT;;;;5.84;NOT;;;583;NOT;;;131.7;NOT;;;238.9;NOT;;;;82;NOT;;;;;15.33;NOT;;;3.41;NOT;;;;;;;2.15;NOT;;;;;;;;;;;;;8.02;NOT;;;1.19;24.9;15;;;;;;;20;NOT;;;;;;31.6;NOT;;;3.2;NOT;;;;;;;;;;;;;;;;;;;;;;;;;;;;;;;;;;;;;;;;;;;;;;;;;;;;;;;;;;;;;;;;;;;;;;;;;;;;;;;;;;;;;
1997;[8053] PANTER K. S. (1997);samp. K097;;ANTARCTICA / WEST ANTARCTIC RIFT SYSTEM / MARIE BYRD LAND / MOUNT SIDLEY;PARASITIC CONES;-77.1;-126.1;-77.1;-126.1;;;OUTCROP;;;SUBAERIAL;VOLCANIC ROCK;BENMOREITE;FINELY PORPHYRITIC, TRACHYTIC;;;;;;;;;;;WHOLE ROCK;;;;;;;;;;55.75;0.95;;;;17.41;;;;;;;;11.2;;;;;3.71;1.13;0.25;;;;;;2.92;XRF;;;6.54;0.58;;;;;;;;;;;;0;;;;;;;;;;;;;;;;;;;;;;;;;6.1;NOT;;;;9;NOT;;;;;;;;;;;6;NOT;;;25;NOT;;;88;NOT;;;26;NOT;;;;2.1;;;87;NOT;76.1;TIMS_ID;;;562;NOT;490.71;TIMS_ID;;;41;NOT;;;584;NOT;;;117;NOT;;;;;;;;0.2;NOT;;;;0.91;NOT;;;891;NOT;;;101.1;NOT;;;187.1;NOT;;;;67;NOT;69.14;TIMS_ID;;;11.31;NOT;11.19;TIMS_ID;3.11;NOT;;;;;;;1.28;NOT;;;;;;;;;;;;;3.8;NOT;;;0.54;12.81;8.15;;;;;;;15;NOT;;;;;;12.9;NOT;;;3.5;NOT;;;0.512866;;;;0.0979;0.703016;;;0.4485;;;;;;;;;;;;;;;;;;;;;;;;;;;;;;;;;;;;;;5.7;;;;;;;;;;;;;;;;;;;;;;;;;;;;;;;;;;;;
1997;[8053] PANTER K. S. (1997);samp. K108;;ANTARCTICA / WEST ANTARCTIC RIFT SYSTEM / MARIE BYRD LAND / MOUNT SIDLEY;BYRD VOLCANO;-77.1;-126.1;-77.1;-126.1;;;OUTCROP;;;SUBAERIAL;VOLCANIC ROCK;BENMOREITE;FINELY PORPHYRITIC, TRACHYTIC;;;;;;;;;;;WHOLE ROCK;;;;;;;;;;55.9;1.26;;;;16.62;;;;;;;;10.07;;;;;2.87;1.03;0.31;;;;;;4.12;XRF;;;7.86;0.46;;;;;;;;;;;;0;;;;;;;;;;;;;;;;;;;;;;;;;6.4;NOT;;;;6;NOT;;;;;;;;;;;5;NOT;;;16;NOT;;;169;NOT;;;36;NOT;;;;3.3;;;105;NOT;98.83;TIMS_ID;;;210;NOT;194.77;TIMS_ID;;;82;NOT;;;995;NOT;;;199;NOT;;;;;;;;0.2;NOT;;;;1.06;NOT;;;717;NOT;;;112.6;NOT;;;214.6;NOT;;;;83;NOT;89.4;TIMS_ID;;;16.8;NOT;17.06;TIMS_ID;4.79;NOT;;;;;;;2.37;NOT;;;;;;;;;;;;;7.82;NOT;;;1.12;20.6;12.8;;;;;;;7;NOT;;;;;;17.8;NOT;;;4.5;NOT;;;0.512886;;;;0.1154;0.703052;;;1.4673;;;;;;;;;;;;;;;;;;;;;;;;;;;;;;;;;;;;;;3.1;;;;;;;;;;;;;;;;;;;;;;;;;;;;;;;;;;;;
1997;[8053] PANTER K. S. (1997);samp. K063B;;ANTARCTICA / WEST ANTARCTIC RIFT SYSTEM / MARIE BYRD LAND / MOUNT SIDLEY;;-77.1;-126.1;-77.1;-126.1;;;OUTCROP;;;SUBAERIAL;VOLCANIC ROCK;BENMOREITE;;MINGLED OR MIXED COMPOSITION;;;;;;;;;;WHOLE ROCK;;;;;;;;;;57.22;1.12;;;;15.84;;;;;;;;7.86;;;;;4.43;3.31;0.12;;;;;;4.03;XRF;;;5.61;0.13;;;;;;;;;;;;0.05;;;;;;;;;;;;;;;;;;;;;;;;;12.7;NOT;;;;78;NOT;;;93;NOT;;;;;;;48;NOT;;;57;NOT;;;107;NOT;;;24;NOT;;;;3.1;;;96;NOT;88.1;TIMS_ID;;;176;NOT;163.46;TIMS_ID;;;40;NOT;;;308;NOT;;;59;NOT;;;;;;;;0;NOT;;;;4.15;NOT;;;264;NOT;;;48.2;NOT;;;94.6;NOT;;;;40;NOT;40.37;TIMS_ID;;;8.16;NOT;7.89;TIMS_ID;1.51;NOT;;;;;;;1.12;NOT;;;;;;;;;;;;;3.41;NOT;;;0.51;7.36;4.36;;;;;;;30;NOT;;;;;;8.1;NOT;;;4.2;NOT;;;0.512833;;;;0.1182;0.703201;;;1.5586;;;;;;;;;;;;;;;;;;;;;;;;;;;;;;;;;;;;;;5.8;;;;;;;;;;;;;;;;;;;;;;;;;;;;;;;;;;;;
1997;[8053] PANTER K. S. (1997);samp. K134;;ANTARCTICA / WEST ANTARCTIC RIFT SYSTEM / MARIE BYRD LAND / MOUNT SIDLEY;DOUMANI PEAK;-77.1;-126.1;-77.1;-126.1;;;OUTCROP;;;SUBAERIAL;VOLCANIC ROCK;BENMOREITE;FINELY PORPHYRITIC, TRACHYTIC;;;;;;;;;;;WHOLE ROCK;;;;;;;;;;;;;;;;;;;;;;;;;;;;;;;;;;;;;;;;;;;;;;;;;;;;;;;;;;;;;;;;;;;;;;;;;;;;;;;;;;;;;;;;;;;;;;;;;;;;;;;;;;;;;;;;;;;74.7;TIMS_ID;;;;;483.46;TIMS_ID;;;;;;;;;;;;;;;;;;;;;;;;;;;;;;;;;;;;;;;;;;;;;;;;;;;;;;;;;;;;;;;;;;;;;;;;;;;;;;;;;;;;;;;;;;;;;;;;;;;;;;;;;;;;;0.703078;;;0.4468;;;;;;;;;;;;;;;;;;;;;;;;;;;;;;;;;;;;;;6.2;;;;;;;;;;;;;;;;;;;;;;;;;;;;;;;;;;;;
1997;[8053] PANTER K. S. (1997);samp. K166;;ANTARCTICA / WEST ANTARCTIC RIFT SYSTEM / MARIE BYRD LAND / MOUNT SIDLEY;WEIS VOLCANO;-77.1;-126.1;-77.1;-126.1;;;OUTCROP;;;SUBAERIAL;VOLCANIC ROCK;BENMOREITE;FINELY PORPHYRITIC, TRACHYTIC;;;;;;;;;;;MINERAL / COMPONENT (INCL. GROUNDMASS);CLINOPYROXENE;;PHENOCRYST;CORE;PRIMARY;;;;;51.13;0.55;;;;1.15;;;;;;;;;;15.27;;;22.22;8.95;0.46;;;;;;;;;;0.67;;;;;;;;;;;;;;;;;;;;;;;;;;;;;;;;;;;;;;;;;;;;;;;;;;;;;;;;;;;;;;;;;;;;;;;;;;;;;;;;;;;;;;;;;;;;;;;;;;;;;;;;;;;;;;;;;;;;;;;;;;;;;;;;;;;;;;;;;;;;;;;;;;;;;;;;;;;;;;;;;;;;;;;;;;;;;;;;;;;;;;;;;;;;;;;;;;;;;;;;;;;;;;;;;;;;;;;;;;;;;;;;;;;;;;;;;;;;;;;;;;;;;;;;;;;;;;;;;;;;;;;;;;;;
1997;[8053] PANTER K. S. (1997);samp. K166;;ANTARCTICA / WEST ANTARCTIC RIFT SYSTEM / MARIE BYRD LAND / MOUNT SIDLEY;WEIS VOLCANO;-77.1;-126.1;-77.1;-126.1;;;OUTCROP;;;SUBAERIAL;VOLCANIC ROCK;BENMOREITE;FINELY PORPHYRITIC, TRACHYTIC;;;;;;;;;;;MINERAL / COMPONENT (INCL. GROUNDMASS);CLINOPYROXENE;;PHENOCRYST;RIM;PRIMARY;;;;;49.72;0.6;;;;1.01;;;;;;;;;;21.78;;;19.44;4.45;0.73;;;;;;;;;;1.74;;;;;;;;;;;;;;;;;;;;;;;;;;;;;;;;;;;;;;;;;;;;;;;;;;;;;;;;;;;;;;;;;;;;;;;;;;;;;;;;;;;;;;;;;;;;;;;;;;;;;;;;;;;;;;;;;;;;;;;;;;;;;;;;;;;;;;;;;;;;;;;;;;;;;;;;;;;;;;;;;;;;;;;;;;;;;;;;;;;;;;;;;;;;;;;;;;;;;;;;;;;;;;;;;;;;;;;;;;;;;;;;;;;;;;;;;;;;;;;;;;;;;;;;;;;;;;;;;;;;;;;;;;;;
1997;[8053] PANTER K. S. (1997);samp. K166;;ANTARCTICA / WEST ANTARCTIC RIFT SYSTEM / MARIE BYRD LAND / MOUNT SIDLEY;WEIS VOLCANO;-77.1;-126.1;-77.1;-126.1;;;OUTCROP;;;SUBAERIAL;VOLCANIC ROCK;BENMOREITE;FINELY PORPHYRITIC, TRACHYTIC;;;;;;;;;;;MINERAL / COMPONENT (INCL. GROUNDMASS);(AL)KALIFELDSPAR;;PHENOCRYST;CORE;PRIMARY;;;;;65.9;;;;;20.02;;;;;;;;;;0.19;;;1.38;;;;;;;;5.24;EMP (EPMA);;;7.28;;;;;;;;;;;;;;;;;;;;;;;;;;;;;;;;;;;;;;;;;;;;;;;;;;;;;;;;;;;;;;;;;;;;;;;;;;;;;;;;;;;;;;;;;;;;;;;;;;;;;;;;;;;;;;;;;;;;;;;;;;;;;;;;;;;;;;;;;;;;;;;;;;;;;;;;;;;;;;;;;;;;;;;;;;;;;;;;;;;;;;;;;;;;;;;;;;;;;;;;;;;;;;;;;;;;;;;;;;;;;;;;;;;;;;;;;;;;;;;;;;;;;;;;;;;;;;;;;;;;;;;;;;;;
1997;[8053] PANTER K. S. (1997);samp. K166;;ANTARCTICA / WEST ANTARCTIC RIFT SYSTEM / MARIE BYRD LAND / MOUNT SIDLEY;WEIS VOLCANO;-77.1;-126.1;-77.1;-126.1;;;OUTCROP;;;SUBAERIAL;VOLCANIC ROCK;BENMOREITE;FINELY PORPHYRITIC, TRACHYTIC;;;;;;;;;;;MINERAL / COMPONENT (INCL. GROUNDMASS);(AL)KALIFELDSPAR;;PHENOCRYST;RIM;PRIMARY;;;;;66.78;;;;;18.52;;;;;;;;;;0.13;;;0.15;;;;;;;;8.31;EMP (EPMA);;;5.64;;;;;;;;;;;;;;;;;;;;;;;;;;;;;;;;;;;;;;;;;;;;;;;;;;;;;;;;;;;;;;;;;;;;;;;;;;;;;;;;;;;;;;;;;;;;;;;;;;;;;;;;;;;;;;;;;;;;;;;;;;;;;;;;;;;;;;;;;;;;;;;;;;;;;;;;;;;;;;;;;;;;;;;;;;;;;;;;;;;;;;;;;;;;;;;;;;;;;;;;;;;;;;;;;;;;;;;;;;;;;;;;;;;;;;;;;;;;;;;;;;;;;;;;;;;;;;;;;;;;;;;;;;;;