Year;CITATION;SAMPLE NAME;UNIQUE_ID;LOCATION;LOCATION COMMENT;LATITUDE (MIN.);LONGITUDE (MIN.);LATITUDE (MAX.);LONGITUDE (MAX.);ELEVATION (MIN.);ELEVATION (MAX.);SAMPLING TECHNIQUE;DRILLING DEPTH (MIN.);DRILLING DEPTH (MAX.);LAND/SEA (SAMPLING);ROCK TYPE;ROCK NAME;ROCK TEXTURE;SAMPLE COMMENT;AGE (MIN.);AGE (MAX.);GEOLOGICAL AGE;GEOLOGICAL AGE PREFIX;ERUPTION DAY;ERUPTION MONTH;ERUPTION YEAR;ALTERATION;ALTERATION TYPE;TYPE OF MATERIAL;MINERAL / COMPONENT;SPOT (MINERAL);CRYSTAL;RIM / CORE (MINERAL GRAINS);PRIMARY/SECONDARY;INCLUSION TYPE;MINERAL (INCLUSION);HOSTMINERAL (INCLUSION);HEATING;SIO2(WT%);TIO2(WT%);ZRO2(WT%);HFO2(WT%);THO2(WT%);AL2O3(WT%);CR2O3(WT%);LA2O3(WT%);CE2O3(WT%);ND2O3(WT%);SM2O3(WT%);V2O3(WT%);NB2O5(WT%);FE2O3T(WT%);FE2O3(WT%);FEOT(WT%);FEO(WT%);FET(WT%);CAO(WT%);MGO(WT%);MNO(WT%);BAO(WT%);SRO(WT%);NIO(WT%);ZNO(WT%);RB2O(WT%);K2O(WT%);;;;NA2O(WT%);P2O5(WT%);AS2O5(WT%);H2O(WT%);H2OP(WT%);H2OM(WT%);CO2(WT%);C(WT%);F(WT%);CL(WT%);OH(WT%);SO3(WT%);S(WT%);LOI(WT%);TI(WT%);CA(WT%);K(WT%);LI(PPM);BE(PPM);B(PPM);F(PPM);P(PPM);S(PPM);CL(PPM);AR40(AT/G);;;;AR40(CCMSTP/G);;;;AR40(MOL/G);;;;AR40(PPB);K(PPM);SC(PPM);;;;TI(PPM);V(PPM);;;;CR(PPM);;;;CO(PPM);;;;NI(PPM);;;;CU(PPM);;;;ZN(PPM);;;;GA(PPM);;;;GE(PPM);AS(PPM);AS(PPB);SE(PPM);RB(PPM);;;;;;SR(PPM);;;;;;Y(PPM);;;;ZR(PPM);;;;NB(PPM);;;;MO(PPM);AG(PPM);CD(PPM);IN(PPM);SN(PPM);SB(PPM): altern. values or methods;;;;TE(PPM);CS(PPM): altern. values or methods;;;;BA(PPM): altern. values or methods;;;;LA(PPM): altern. values or methods;;;;CE(PPM): altern. values or methods;;;;PR(PPM);ND(PPM): altern. values or methods;;;;;;SM(PPM): altern. values or methods;;;;EU(PPM): altern. values or methods;;;;GD(PPM): altern. values or methods;;;;TB(PPM): altern. values or methods;;;;DY(PPM): altern. values or methods;;;;HO(PPM);ER(PPM): altern. values or methods;;;;TM(PPM);YB(PPM): altern. values or methods;;;;LU(PPM);HF(PPM);TA(PPM);W(PPM);RE(PPM);AU(PPM);HG(PPM);HG(PPB);TL(PPM);PB(PPM): altern. values or methods;;;;BI(PPM);PO210_ACT(DPM/G);RA226_ACT(DPM/G);TH(PPM): altern. values or methods;;;;U(PPM): altern. values or methods;;;;ND143_ND144;ND143_ND144_INI;EPSILON_ND;EPSILON_ND_INI;SM147_ND144;SR87_SR86;SR87_SR86_INI;EPSILON_SR_INI;RB87_SR86;PB206_PB204: altern. values or methods;;;;PB206_PB204_INI;PB207_PB204: altern. values or methods;;;;PB207_PB204_INI;PB207_PB206;PB208_PB204: altern. values or methods;;;;PB208_PB204_INI;PB208_PB206;HF176_HF177;LU176_HF177;AR38_AR36;AR40_AR36;AR40_AR36_INI;PB206_U238;PB207_U235;RA226_TH230_ACT;PA231_U235_ACT;TH230_TH232_ACT;TH230_U238_ACT;TH232_PB204;U234_U238_ACT;U235_PB204;U238_PB204;U238_TH232_ACT;D7LI(VS LSVEC);D13C(VS PDB);D18O(PER MIL);D18O(VS SMOW);D18O(VS VSMOW);D34S(VS VCDT);ALBITE(MOL%);ANORTHITE(MOL%);CA OLIVINE(MOL%);CHROMITE(MOL%);ENSTATITE(MOL%);FAYALITE(MOL%);FORSTERITE(MOL%);FERROSILITE(MOL%);HEMATITE(MOL%);HERCYNITE(MOL%);ILMENITE(MOL%);MAGNESIOFERRITE(MOL%);MONTICELLITE(MOL%);MAGNETITE(MOL%);ORTHOCLASE(MOL%);PICROCHROMITE(MOL%);SPINEL(MOL%);TEPHROITE(MOL%);ULVOSPINEL(MOL%);WOLLASTONITE(MOL%);AGE(KA): altern. values or methods;;;;;;AGE(MA): altern. values or methods;;;;;;AGE_PB207_U235(MA);AGE_PB206_U238(MA);
2009;[13787] SMITH D. J.(2009)  [GeoReM [4914] ];samp. SV12;96240;SOLOMON ISLAND ARC / SOLOMON ISLAND ARC - CENTRAL PROVINCE / SAVO;POGHOROVURAGHALA FAN;-9.17;159.83;-9.17;159.83;;;OUTCROP;;;SUBAQUATIC;VOLCANIC ROCK;BENMOREITE;;;;;;;;;;;;MINERAL / COMPONENT (INCL. GROUNDMASS);AMPHIBOLE;12-042;;;PRIMARY;;;;;42.358;1.503;;;;13.424;0.037;;;;;;;;;10.103;;;12.042;14.272;0.156;;;0.036;;;0.826;EMP (EPMA);;;2.54;;;;;;;;;;;;;;;;;;;;;;;;;;;;;;;;;;;;;;;;;;;;;;;;;;;;;;;;;;;;;;;;;;;;;;;;;;;;;;;;;;;;;;;;;;;;;;;;;;;;;;;;;;;;;;;;;;;;;;;;;;;;;;;;;;;;;;;;;;;;;;;;;;;;;;;;;;;;;;;;;;;;;;;;;;;;;;;;;;;;;;;;;;;;;;;;;;;;;;;;;;;;;;;;;;;;;;;;;;;;;;;;;;;;;;;;;;;;;;;;;;;;;;;;;;;;;;;;;;;;;;;;;;;;
2009;[13787] SMITH D. J.(2009)  [GeoReM [4914] ];samp. SV12;96240;SOLOMON ISLAND ARC / SOLOMON ISLAND ARC - CENTRAL PROVINCE / SAVO;POGHOROVURAGHALA FAN;-9.17;159.83;-9.17;159.83;;;OUTCROP;;;SUBAQUATIC;VOLCANIC ROCK;BENMOREITE;;;;;;;;;;;;MINERAL / COMPONENT (INCL. GROUNDMASS);AMPHIBOLE;12-043;;;PRIMARY;;;;;44.024;1.473;;;;10.704;0;;;;;;;;;8.918;;;13.052;15.427;0.19;;;0.007;;;0.776;EMP (EPMA);;;2.293;;;;;;;;;;;;;;;;;;;;;;;;;;;;;;;;;;;;;;;;;;;;;;;;;;;;;;;;;;;;;;;;;;;;;;;;;;;;;;;;;;;;;;;;;;;;;;;;;;;;;;;;;;;;;;;;;;;;;;;;;;;;;;;;;;;;;;;;;;;;;;;;;;;;;;;;;;;;;;;;;;;;;;;;;;;;;;;;;;;;;;;;;;;;;;;;;;;;;;;;;;;;;;;;;;;;;;;;;;;;;;;;;;;;;;;;;;;;;;;;;;;;;;;;;;;;;;;;;;;;;;;;;;;;
2009;[13787] SMITH D. J.(2009)  [GeoReM [4914] ];samp. SV12;96240;SOLOMON ISLAND ARC / SOLOMON ISLAND ARC - CENTRAL PROVINCE / SAVO;POGHOROVURAGHALA FAN;-9.17;159.83;-9.17;159.83;;;OUTCROP;;;SUBAQUATIC;VOLCANIC ROCK;BENMOREITE;;;;;;;;;;;;MINERAL / COMPONENT (INCL. GROUNDMASS);AMPHIBOLE;12-044;;;PRIMARY;;;;;42.961;1.791;;;;11.908;0.015;;;;;;;;;11.569;;;11.827;14.037;0.272;;;0;;;0.609;EMP (EPMA);;;2.567;;;;;;;;;;;;;;;;;;;;;;;;;;;;;;;;;;;;;;;;;;;;;;;;;;;;;;;;;;;;;;;;;;;;;;;;;;;;;;;;;;;;;;;;;;;;;;;;;;;;;;;;;;;;;;;;;;;;;;;;;;;;;;;;;;;;;;;;;;;;;;;;;;;;;;;;;;;;;;;;;;;;;;;;;;;;;;;;;;;;;;;;;;;;;;;;;;;;;;;;;;;;;;;;;;;;;;;;;;;;;;;;;;;;;;;;;;;;;;;;;;;;;;;;;;;;;;;;;;;;;;;;;;;;
2009;[13787] SMITH D. J.(2009)  [GeoReM [4914] ];samp. SV12;96240;SOLOMON ISLAND ARC / SOLOMON ISLAND ARC - CENTRAL PROVINCE / SAVO;POGHOROVURAGHALA FAN;-9.17;159.83;-9.17;159.83;;;OUTCROP;;;SUBAQUATIC;VOLCANIC ROCK;BENMOREITE;;;;;;;;;;;;MINERAL / COMPONENT (INCL. GROUNDMASS);AMPHIBOLE;12-052;;;PRIMARY;;;;;41.086;1.99;;;;13.375;0;;;;;;;;;11.258;;;12.038;13.839;0.108;;;0.034;;;0.65;EMP (EPMA);;;2.698;;;;;;;;;;;;;;;;;;;;;;;;;;;;;;;;;;;;;;;;;;;;;;;;;;;;;;;;;;;;;;;;;;;;;;;;;;;;;;;;;;;;;;;;;;;;;;;;;;;;;;;;;;;;;;;;;;;;;;;;;;;;;;;;;;;;;;;;;;;;;;;;;;;;;;;;;;;;;;;;;;;;;;;;;;;;;;;;;;;;;;;;;;;;;;;;;;;;;;;;;;;;;;;;;;;;;;;;;;;;;;;;;;;;;;;;;;;;;;;;;;;;;;;;;;;;;;;;;;;;;;;;;;;;
2009;[13787] SMITH D. J.(2009)  [GeoReM [4914] ];samp. SV12;96240;SOLOMON ISLAND ARC / SOLOMON ISLAND ARC - CENTRAL PROVINCE / SAVO;POGHOROVURAGHALA FAN;-9.17;159.83;-9.17;159.83;;;OUTCROP;;;SUBAQUATIC;VOLCANIC ROCK;BENMOREITE;;;;;;;;;;;;MINERAL / COMPONENT (INCL. GROUNDMASS);AMPHIBOLE;12-054;;;PRIMARY;;;;;42.863;1.512;;;;12.541;0.012;;;;;;;;;9.085;;;11.749;15.978;0.112;;;0;;;1.005;EMP (EPMA);;;2.466;;;;;;;;;;;;;;;;;;;;;;;;;;;;;;;;;;;;;;;;;;;;;;;;;;;;;;;;;;;;;;;;;;;;;;;;;;;;;;;;;;;;;;;;;;;;;;;;;;;;;;;;;;;;;;;;;;;;;;;;;;;;;;;;;;;;;;;;;;;;;;;;;;;;;;;;;;;;;;;;;;;;;;;;;;;;;;;;;;;;;;;;;;;;;;;;;;;;;;;;;;;;;;;;;;;;;;;;;;;;;;;;;;;;;;;;;;;;;;;;;;;;;;;;;;;;;;;;;;;;;;;;;;;;
2009;[13787] SMITH D. J.(2009)  [GeoReM [4914] ];samp. SV12;96240;SOLOMON ISLAND ARC / SOLOMON ISLAND ARC - CENTRAL PROVINCE / SAVO;POGHOROVURAGHALA FAN;-9.17;159.83;-9.17;159.83;;;OUTCROP;;;SUBAQUATIC;VOLCANIC ROCK;BENMOREITE;;;;;;;;;;;;MINERAL / COMPONENT (INCL. GROUNDMASS);AMPHIBOLE;12-057;;;PRIMARY;;;;;43.474;1.585;;;;11.746;0.021;;;;;;;;;10.458;;;11.326;15.554;0.146;;;0.029;;;0.714;EMP (EPMA);;;2.467;;;;;;;;;;;;;;;;;;;;;;;;;;;;;;;;;;;;;;;;;;;;;;;;;;;;;;;;;;;;;;;;;;;;;;;;;;;;;;;;;;;;;;;;;;;;;;;;;;;;;;;;;;;;;;;;;;;;;;;;;;;;;;;;;;;;;;;;;;;;;;;;;;;;;;;;;;;;;;;;;;;;;;;;;;;;;;;;;;;;;;;;;;;;;;;;;;;;;;;;;;;;;;;;;;;;;;;;;;;;;;;;;;;;;;;;;;;;;;;;;;;;;;;;;;;;;;;;;;;;;;;;;;;;
2009;[13787] SMITH D. J.(2009)  [GeoReM [4914] ];samp. SV12;96240;SOLOMON ISLAND ARC / SOLOMON ISLAND ARC - CENTRAL PROVINCE / SAVO;POGHOROVURAGHALA FAN;-9.17;159.83;-9.17;159.83;;;OUTCROP;;;SUBAQUATIC;VOLCANIC ROCK;BENMOREITE;;;;;;;;;;;;MINERAL / COMPONENT (INCL. GROUNDMASS);AMPHIBOLE;12-060;;;PRIMARY;;;;;41.41;2.389;;;;12.999;0.05;;;;;;;;;11.956;;;11.818;13.073;0.28;;;0.026;;;0.654;EMP (EPMA);;;2.742;;;;;;;;;;;;;;;;;;;;;;;;;;;;;;;;;;;;;;;;;;;;;;;;;;;;;;;;;;;;;;;;;;;;;;;;;;;;;;;;;;;;;;;;;;;;;;;;;;;;;;;;;;;;;;;;;;;;;;;;;;;;;;;;;;;;;;;;;;;;;;;;;;;;;;;;;;;;;;;;;;;;;;;;;;;;;;;;;;;;;;;;;;;;;;;;;;;;;;;;;;;;;;;;;;;;;;;;;;;;;;;;;;;;;;;;;;;;;;;;;;;;;;;;;;;;;;;;;;;;;;;;;;;;
2009;[13787] SMITH D. J.(2009)  [GeoReM [4914] ];samp. SV12;96240;SOLOMON ISLAND ARC / SOLOMON ISLAND ARC - CENTRAL PROVINCE / SAVO;POGHOROVURAGHALA FAN;-9.17;159.83;-9.17;159.83;;;OUTCROP;;;SUBAQUATIC;VOLCANIC ROCK;BENMOREITE;;;;;;;;;;;;MINERAL / COMPONENT (INCL. GROUNDMASS);AMPHIBOLE;12-070;;;PRIMARY;;;;;44.363;2.248;;;;10.58;0;;;;;;;;;10.412;;;11.581;14.731;0.293;;;0.012;;;0.898;EMP (EPMA);;;2.493;;;;;;;;;;;;;;;;;;;;;;;;;;;;;;;;;;;;;;;;;;;;;;;;;;;;;;;;;;;;;;;;;;;;;;;;;;;;;;;;;;;;;;;;;;;;;;;;;;;;;;;;;;;;;;;;;;;;;;;;;;;;;;;;;;;;;;;;;;;;;;;;;;;;;;;;;;;;;;;;;;;;;;;;;;;;;;;;;;;;;;;;;;;;;;;;;;;;;;;;;;;;;;;;;;;;;;;;;;;;;;;;;;;;;;;;;;;;;;;;;;;;;;;;;;;;;;;;;;;;;;;;;;;;
2009;[13787] SMITH D. J.(2009)  [GeoReM [4914] ];samp. SV12;96240;SOLOMON ISLAND ARC / SOLOMON ISLAND ARC - CENTRAL PROVINCE / SAVO;POGHOROVURAGHALA FAN;-9.17;159.83;-9.17;159.83;;;OUTCROP;;;SUBAQUATIC;VOLCANIC ROCK;BENMOREITE;;;;;;;;;;;;MINERAL / COMPONENT (INCL. GROUNDMASS);AMPHIBOLE;12-074;;;PRIMARY;;;;;41.762;1.778;;;;13.419;0.025;;;;;;;;;9.928;;;11.82;14.854;0.097;;;0.013;;;0.796;EMP (EPMA);;;2.669;;;;;;;;;;;;;;;;;;;;;;;;;;;;;;;;;;;;;;;;;;;;;;;;;;;;;;;;;;;;;;;;;;;;;;;;;;;;;;;;;;;;;;;;;;;;;;;;;;;;;;;;;;;;;;;;;;;;;;;;;;;;;;;;;;;;;;;;;;;;;;;;;;;;;;;;;;;;;;;;;;;;;;;;;;;;;;;;;;;;;;;;;;;;;;;;;;;;;;;;;;;;;;;;;;;;;;;;;;;;;;;;;;;;;;;;;;;;;;;;;;;;;;;;;;;;;;;;;;;;;;;;;;;;
2009;[13787] SMITH D. J.(2009)  [GeoReM [4914] ];samp. SV12;96240;SOLOMON ISLAND ARC / SOLOMON ISLAND ARC - CENTRAL PROVINCE / SAVO;POGHOROVURAGHALA FAN;-9.17;159.83;-9.17;159.83;;;OUTCROP;;;SUBAQUATIC;VOLCANIC ROCK;BENMOREITE;;;;;;;;;;;;MINERAL / COMPONENT (INCL. GROUNDMASS);AMPHIBOLE;12-075;;;PRIMARY;;;;;44.678;2.236;;;;11.154;0;;;;;;;;;10.482;;;10.94;13.794;0.388;;;0;;;0.803;EMP (EPMA);;;2.998;;;;;;;;;;;;;;;;;;;;;;;;;;;;;;;;;;;;;;;;;;;;;;;;;;;;;;;;;;;;;;;;;;;;;;;;;;;;;;;;;;;;;;;;;;;;;;;;;;;;;;;;;;;;;;;;;;;;;;;;;;;;;;;;;;;;;;;;;;;;;;;;;;;;;;;;;;;;;;;;;;;;;;;;;;;;;;;;;;;;;;;;;;;;;;;;;;;;;;;;;;;;;;;;;;;;;;;;;;;;;;;;;;;;;;;;;;;;;;;;;;;;;;;;;;;;;;;;;;;;;;;;;;;;
2009;[13787] SMITH D. J.(2009)  [GeoReM [4914] ];samp. SV12;96240;SOLOMON ISLAND ARC / SOLOMON ISLAND ARC - CENTRAL PROVINCE / SAVO;POGHOROVURAGHALA FAN;-9.17;159.83;-9.17;159.83;;;OUTCROP;;;SUBAQUATIC;VOLCANIC ROCK;BENMOREITE;;;;;;;;;;;;MINERAL / COMPONENT (INCL. GROUNDMASS);MAGNETITE;12-073;;;PRIMARY;;;;;0;1.843;;;;1.095;0.507;;;;;;;;;82.266;;;0;2.317;1.131;;;0.012;;;0;EMP (EPMA);;;0;;;;;;;;;;;;;;;;;;;;;;;;;;;;;;;;;;;;;;;;;;;;;;;;;;;;;;;;;;;;;;;;;;;;;;;;;;;;;;;;;;;;;;;;;;;;;;;;;;;;;;;;;;;;;;;;;;;;;;;;;;;;;;;;;;;;;;;;;;;;;;;;;;;;;;;;;;;;;;;;;;;;;;;;;;;;;;;;;;;;;;;;;;;;;;;;;;;;;;;;;;;;;;;;;;;;;;;;;;;;;;;;;;;;;;;;;;;;;;;;;;;;;;;;;;;;;;;;;;;;;;;;;;;;
2009;[13787] SMITH D. J.(2009)  [GeoReM [4914] ];samp. SV12;96240;SOLOMON ISLAND ARC / SOLOMON ISLAND ARC - CENTRAL PROVINCE / SAVO;POGHOROVURAGHALA FAN;-9.17;159.83;-9.17;159.83;;;OUTCROP;;;SUBAQUATIC;VOLCANIC ROCK;BENMOREITE;;;;;;;;;;;;MINERAL / COMPONENT (INCL. GROUNDMASS);MAGNETITE;12-072;;;PRIMARY;;;;;0;9.266;;;;0.605;0.062;;;;;;;;;82.233;;;0.046;1.746;0.751;;;0;;;0.021;EMP (EPMA);;;0;;;;;;;;;;;;;;;;;;;;;;;;;;;;;;;;;;;;;;;;;;;;;;;;;;;;;;;;;;;;;;;;;;;;;;;;;;;;;;;;;;;;;;;;;;;;;;;;;;;;;;;;;;;;;;;;;;;;;;;;;;;;;;;;;;;;;;;;;;;;;;;;;;;;;;;;;;;;;;;;;;;;;;;;;;;;;;;;;;;;;;;;;;;;;;;;;;;;;;;;;;;;;;;;;;;;;;;;;;;;;;;;;;;;;;;;;;;;;;;;;;;;;;;;;;;;;;;;;;;;;;;;;;;;
2009;[13787] SMITH D. J.(2009)  [GeoReM [4914] ];samp. SV12;96240;SOLOMON ISLAND ARC / SOLOMON ISLAND ARC - CENTRAL PROVINCE / SAVO;POGHOROVURAGHALA FAN;-9.17;159.83;-9.17;159.83;;;OUTCROP;;;SUBAQUATIC;VOLCANIC ROCK;BENMOREITE;;;;;;;;;;;;MINERAL / COMPONENT (INCL. GROUNDMASS);MAGNETITE;12-049;;;PRIMARY;;;;;0.046;4.65;;;;0.649;0.117;;;;;;;;;76.85;;;0.018;1.267;0.64;;;0;;;0;EMP (EPMA);;;0;;;;;;;;;;;;;;;;;;;;;;;;;;;;;;;;;;;;;;;;;;;;;;;;;;;;;;;;;;;;;;;;;;;;;;;;;;;;;;;;;;;;;;;;;;;;;;;;;;;;;;;;;;;;;;;;;;;;;;;;;;;;;;;;;;;;;;;;;;;;;;;;;;;;;;;;;;;;;;;;;;;;;;;;;;;;;;;;;;;;;;;;;;;;;;;;;;;;;;;;;;;;;;;;;;;;;;;;;;;;;;;;;;;;;;;;;;;;;;;;;;;;;;;;;;;;;;;;;;;;;;;;;;;;
1992;[13878] MOUTY M. (1992);samp. S 86;;ARABIAN-NUBIAN SHIELD / SYRIA / HARRAT ASH SHAAM (SHAMAH) VOLCANIC FIELD;JOUBET BARGHAL;35.4833;36.15;35.4833;36.15;;;OUTCROP;;;SUBAERIAL;VOLCANIC ROCK;BENMOREITE;;;;;CRETACEOUS;;;;;;;WHOLE ROCK;;;;;;;;;;55.54;0.65;;;;16.52;;;;;;;;;2.17;;6.97;;4.39;1.97;0.17;;;;;;4.18;XRF;;;5.18;0.61;;1.01;;;0.36;;;;;;;;;;3.44;;;;;;;;;;;;;;;;6.696E-09;MS_ID;;;;;;;;;;;;;;12;XRF;;;;;;;1;XRF;;;;;;;;;;;;;;;;;;;;;;;;;;;;;;;34;XRF;;;673;XRF;;;;;;;;;;;;;;;;;;;;;;;;;;;;;;;;;;;;;;;;;;;;;;;;;;;;;;;;;;;;;;;;;;;;;;;;;;;;;;;;;;;;;;;;;;;;;;;;;;;;;;;;;;;;;;;;;;;;;;;;;;;;;;;;;;;;;;;;;;;;;;;;;;;;;;;;;;;;;;;;;;;;;;;;108.9;K-AR;;;;;;;
2009;[13967] KHLER J.(2009)  [GeoReM [4895] ];samp. GD7;;GARDAR PROVINCE - GREENLAND / ILIMAUSSAQ-NARSARSUAQ-MOTZFELDT REGION / NARSAQ DIKE SWARM;;61;-45.7;61;-45.7;;;OUTCROP;;;SUBAERIAL;VOLCANIC ROCK;BENMOREITE;;DIKE;1160000000;1280000000;PROTEROZOIC;;;;;;;WHOLE ROCK;;;;;;;;;;57.48;0.77;;;;15.08;;;;;;;;10.11;;;;;2.66;0.44;0.25;;;;;;3.51;XRF;;;6.76;0.16;;;;;;;;;;;;1.4;;;;;;;3928;;39;159;;;;;;;;;;;;;;;8;XRF;;;;9;XRF;;;11;XRF;;;6;XRF;;;174;XRF;;;96;XRF;;;238;XRF;;;46;XRF;;;;26.7;;;86;XRF;;;;;158;XRF;;;;;184;XRF;;;1532;XRF;;;246;XRF;;;;;;;14.1;;;;;;21;XRF;;;207;XRF;;;223;XRF;;;446;XRF;;;45;184;XRF;;;;;30;XRF;;;3;XRF;;;27;XRF;;;;;;;53;XRF;;;;;;;;;14.2;XRF;;;2;51.1;24.4;;;;;;;59;XRF;;;;;;36.1;XRF;;;36.5;XRF;;;;;;;;;;;;;;;;;;;;;;;;;;;;;;;;;;;;;;;;;;;;;;;;;;;;;;;;;;;;;;;;;;;;;;;;;;;;;;;;;;;;;
2009;[13967] KHLER J.(2009)  [GeoReM [4895] ];samp. BB 11;;GARDAR PROVINCE - GREENLAND / IVIGTUT REGION / IVIGTUT DIKE SWARM;;61.25;-48.15;61.25;-48.15;;;OUTCROP;;;SUBAERIAL;VOLCANIC ROCK;BENMOREITE;;DIKE;1160000000;1280000000;PROTEROZOIC;;;;;;;WHOLE ROCK;;;;;;;;;;59.5;0.67;;;;16.4;;;;;;;;;;5.28;;;5.06;2.46;0.091;;;;;;2.18;XRF;;;4.75;0.239;;;;;;;;;;;;;;;;;;;3400;;100;;;;;;;;;;;;;;;;;;;;;;;;;70;XRF;;;;;;;;;;;18;XRF;;;87;XRF;;;;;;;;;;;126;XRF;;;;;423;XRF;;;;;26;XRF;;;370;XRF;;;96;XRF;;;;;;;0;;;;;;;;;;770;XRF;;;;;;;69;XRF;;;;;;;;;;;;;;;;;;;;;;;;;;;;;;;;;;;;;;;;;;;;;;;;;67;XRF;;;;;;;;;;;;;;;;;;;;;;;;;;;;;;;;;;;;;;;;;;;;;;;;;;;;;;;;;;;;;;;;;;;;;;;;;;;;;;;;;;;;;;;;;;;;;;;;
2010;[14226] RONGA F. (2010);samp. B450;;EAST AFRICAN RIFT / ETHIOPIAN RIFT / MAIN ETHIOPIAN RIFT / BOSETI VOLCANIC COMPLEX;;8.62;39.52;8.62;39.52;;;OUTCROP;;;SUBAERIAL;VOLCANIC ROCK;BENMOREITE;;;;;PLEISTOCENE;;;;;;;WHOLE ROCK;;;;;;;;;;58.86;1.34;;;;15.4;;;;;;;;9.94;;;;;3.82;1.11;0.36;;;;;;2.06;XRF;;;6.2;0.37;;;;;;;;;;;;0.56;;;;;;;;;;;;;;;;;;;;;;;;;18;XRF;;;;31;XRF;;;;;;;;;;;8;XRF;;;;;;;120;ICPMS;;;;;;;;;;;26;XRF;;;;;324;XRF;;;;;43;XRF;;;236;XRF;;;42;XRF;;;;;;;;;;;;;0.5;ICPMS;;;867;XRF;;;47;ICPMS;;;99;XRF;;;12.2;50.6;ICPMS;;;;;10.8;ICPMS;;;4.7;ICPMS;;;10.5;ICPMS;;;1.7;ICPMS;;;9.4;ICPMS;;;1.8;5.1;ICPMS;;;0.7;4.5;ICPMS;;;0.7;7;3.6;;;;;;;8;ICPMS;;;;;;5.1;ICPMS;;;1.2;ICPMS;;;;;;;;;;;;;;;;;;;;;;;;;;;;;;;;;;;;;;;;;;;;;;;;;;;;;;;;;;;;;;;;;;;;;;;;;;;;;;;;;;;;;
2010;[14226] RONGA F. (2010);samp. B450;;EAST AFRICAN RIFT / ETHIOPIAN RIFT / MAIN ETHIOPIAN RIFT / BOSETI VOLCANIC COMPLEX;;8.62;39.52;8.62;39.52;;;OUTCROP;;;SUBAERIAL;VOLCANIC ROCK;BENMOREITE;;;;;PLEISTOCENE;;;;;;;MINERAL / COMPONENT (INCL. GROUNDMASS);CLINOPYROXENE;;;CORE;PRIMARY;;;;;51.4;0.66;;;;1.32;0;;;;;;;;;14.38;;;20.27;11.32;1.03;;;;;;;;;;0.42;;;;;;;;;;;;;;;;;;;;;;;;;;;;;;;;;;;;;;;;;;;;;;;;;;;;;;;;;;;;;;;;;;;;;;;;;;;;;;;;;;;;;;;;;;;;;;;;;;;;;;;;;;;;;;;;;;;;;;;;;;;;;;;;;;;;;;;;;;;;;;;;;;;;;;;;;;;;;;;;;;;;;;;;;;;;;;;;;;;;;;;;;;;;;;;;;;;;;;;;;;;;;;;;;;;;;;;;;;;;;;;;;;;;;;;;;;;;;;32.8;;;25.1;;;;;;;;;;;;42.2;;;;;;;;;;;;;;;
2010;[14226] RONGA F. (2010);samp. B450;;EAST AFRICAN RIFT / ETHIOPIAN RIFT / MAIN ETHIOPIAN RIFT / BOSETI VOLCANIC COMPLEX;;8.62;39.52;8.62;39.52;;;OUTCROP;;;SUBAERIAL;VOLCANIC ROCK;BENMOREITE;;;;;PLEISTOCENE;;;;;;;MINERAL / COMPONENT (INCL. GROUNDMASS);CLINOPYROXENE;;;RIM;PRIMARY;;;;;51.36;0.82;;;;1.59;0.04;;;;;;;;;13.8;;;19.95;11.96;0.88;;;;;;;;;;0.41;;;;;;;;;;;;;;;;;;;;;;;;;;;;;;;;;;;;;;;;;;;;;;;;;;;;;;;;;;;;;;;;;;;;;;;;;;;;;;;;;;;;;;;;;;;;;;;;;;;;;;;;;;;;;;;;;;;;;;;;;;;;;;;;;;;;;;;;;;;;;;;;;;;;;;;;;;;;;;;;;;;;;;;;;;;;;;;;;;;;;;;;;;;;;;;;;;;;;;;;;;;;;;;;;;;;;;;;;;;;;;;;;;;;;;;;;;;;;;34.6;;;23.9;;;;;;;;;;;;41.5;;;;;;;;;;;;;;;
2010;[14226] RONGA F. (2010);samp. B450;;EAST AFRICAN RIFT / ETHIOPIAN RIFT / MAIN ETHIOPIAN RIFT / BOSETI VOLCANIC COMPLEX;;8.62;39.52;8.62;39.52;;;OUTCROP;;;SUBAERIAL;VOLCANIC ROCK;BENMOREITE;;;;;PLEISTOCENE;;;;;;;MINERAL / COMPONENT (INCL. GROUNDMASS);PLAGIOCLASE;;GROUNDMASS;;PRIMARY;;;;;63.02;;;;;21.95;;;;;;;;;;0.78;;;4.49;0.05;;;;;;;1.64;EMP (EPMA);;;8.01;;;;;;;;;;;;;;;;;;;;;;;;;;;;;;;;;;;;;;;;;;;;;;;;;;;;;;;;;;;;;;;;;;;;;;;;;;;;;;;;;;;;;;;;;;;;;;;;;;;;;;;;;;;;;;;;;;;;;;;;;;;;;;;;;;;;;;;;;;;;;;;;;;;;;;;;;;;;;;;;;;;;;;;;;;;;;;;;;;;;;;;;;;;;;;;;;;;;;;;;;;;;;;;;;;;;;;;;;;;;;;;;;;;;;;;;;;69.2;21.5;;;;;;;;;;;;;9.3;;;;;;;;;;;;;;;;;;;;
2010;[14226] RONGA F. (2010);samp. B450;;EAST AFRICAN RIFT / ETHIOPIAN RIFT / MAIN ETHIOPIAN RIFT / BOSETI VOLCANIC COMPLEX;;8.62;39.52;8.62;39.52;;;OUTCROP;;;SUBAERIAL;VOLCANIC ROCK;BENMOREITE;;;;;PLEISTOCENE;;;;;;;MINERAL / COMPONENT (INCL. GROUNDMASS);PLAGIOCLASE;;GROUNDMASS;;PRIMARY;;;;;63.07;;;;;23.02;;;;;;;;;;0.29;;;5.14;0.03;;;;;;;0.54;EMP (EPMA);;;8.32;;;;;;;;;;;;;;;;;;;;;;;;;;;;;;;;;;;;;;;;;;;;;;;;;;;;;;;;;;;;;;;;;;;;;;;;;;;;;;;;;;;;;;;;;;;;;;;;;;;;;;;;;;;;;;;;;;;;;;;;;;;;;;;;;;;;;;;;;;;;;;;;;;;;;;;;;;;;;;;;;;;;;;;;;;;;;;;;;;;;;;;;;;;;;;;;;;;;;;;;;;;;;;;;;;;;;;;;;;;;;;;;;;;;;;;;;;72.2;24.7;;;;;;;;;;;;;3.1;;;;;;;;;;;;;;;;;;;;
2010;[14264] NICOTRA E. (2010);samp. EL85;;ETNA/SICILY / ELLITTICO-MONGIBELLO TRANSITION SEQUENCE;PIANO DELLE CONCAZZE AREA, BETWEEN PIZZI DE NERI AND THE NORTH EAST CRATER;37.73;15;37.73;15;2790;2790;OUTCROP;;;SUBAERIAL;VOLCANIC ROCK;BENMOREITE;MESOPHYRIC, SERIATE;LAVA FLOW AT THE BOTTOM;15000;15000;PLEISTOCENE;;;;;;;WHOLE ROCK;;;;;;;;;;55.9;1.61;;;;17.4;;;;;;;;;6.53;7.98;2.04;;5.34;1.56;0.17;;;;;;2.69;XRF;;;5.44;0.66;;;;;;;;;;;;1.19;;;;;;;;;;;;;;;;;;;;;;;;;12;ICPMS;;;;156;ICPMS;;;;;;;14.8;ICPMS;;;;;;;;;;;;;;;;;;;;;;;47.1;ICPMS;;;;;1000;ICPMS;;;;;31.3;ICPMS;;;236;ICPMS;;;84;ICPMS;;;;;;;;;;;;;0.3;ICPMS;;;1160;ICPMS;;;121;ICPMS;;;216;ICPMS;;;23.6;82.3;ICPMS;;;;;13.2;ICPMS;;;3.47;ICPMS;;;11.5;ICPMS;;;1.58;ICPMS;;;6.67;ICPMS;;;1.29;3.33;ICPMS;;;0.46;2.9;ICPMS;;;0.39;5;3.5;;;;;;;14;ICPMS;;;;;;16.5;ICPMS;;;4.62;ICPMS;;;;;;;;;;;;;;;;;;;;;;;;;;;;;;;;;;;;;;;;;;;;;;;;;;;;;;;;;;;;;;;;;;;;;;;;;;;;;;;;;;;;;
2010;[14264] NICOTRA E. (2010);samp. EL86;275666;ETNA/SICILY / ELLITTICO-MONGIBELLO TRANSITION SEQUENCE;PIANO DELLE CONCAZZE AREA, BETWEEN PIZZI DE NERI AND THE NORTH EAST CRATER;37.73;15;37.73;15;2790;2790;OUTCROP;;;SUBAERIAL;VOLCANIC ROCK;BENMOREITE;MESOPHYRIC, SERIATE;;15000;15000;PLEISTOCENE;;;;;;;WHOLE ROCK;;;;;;;;;;51.4;1.69;;;;18.3;;;;;;;;;7.86;9.49;2.32;;8.78;2.53;0.16;;;;;;1.84;XRF;;;4.01;0.5;;;;;;;;;;;;1.28;;;;;;;;;;;;;;;;;;;;;;;;;13;ICPMS;;;;196;ICPMS;;;;;;;21.5;ICPMS;;;;;;;;;;;;;;;;;;;;;;;31.3;ICPMS;;;;;1140;ICPMS;;;;;23.4;ICPMS;;;214;ICPMS;;;57;ICPMS;;;;;;;;;;;;;0.6;ICPMS;;;755;ICPMS;;;81.5;ICPMS;;;147;ICPMS;;;16;56.3;ICPMS;;;;;9.6;ICPMS;;;2.5;ICPMS;;;8.49;ICPMS;;;1.13;ICPMS;;;5.23;ICPMS;;;1;2.49;ICPMS;;;0.35;2.2;ICPMS;;;0.3;4;2.5;;;;;;;9;ICPMS;;;;;;12.2;ICPMS;;;3.52;ICPMS;;;;;;;;;;;;;;;;;;;;;;;;;;;;;;;;;;;;;;;;;;;;;;;;;;;;;;;;;;;;;;;;;;;;;;;;;;;;;;;;;;;;;
2010;[14264] NICOTRA E. (2010);samp. EL87;275667;ETNA/SICILY / ELLITTICO-MONGIBELLO TRANSITION SEQUENCE;PIANO DELLE CONCAZZE AREA, BETWEEN PIZZI DE NERI AND THE NORTH EAST CRATER;37.73;15;37.73;15;2790;2790;OUTCROP;;;SUBAERIAL;VOLCANIC ROCK;BENMOREITE;MESOPHYRIC, SERIATE;;15000;15000;PLEISTOCENE;;;;;;;WHOLE ROCK;;;;;;;;;;51.8;1.5;;;;19.4;;;;;;;;;4.8;8.47;4.06;;8.65;2.3;0.15;;;;;;1.71;XRF;;;4.3;0.54;;;;;;;;;;;;1.17;;;;;;;;;;;;;;;;;;;;;;;;;13;ICPMS;;;;207;ICPMS;;;;;;;23.8;ICPMS;;;;;;;;;;;;;;;;;;;;;;;31.4;ICPMS;;;;;1170;ICPMS;;;;;23.6;ICPMS;;;177;ICPMS;;;55;ICPMS;;;;;;;;;;;;;0.6;ICPMS;;;727;ICPMS;;;76.7;ICPMS;;;139;ICPMS;;;15.3;53.9;ICPMS;;;;;9.3;ICPMS;;;2.51;ICPMS;;;8.35;ICPMS;;;1.12;ICPMS;;;5.05;ICPMS;;;1;2.47;ICPMS;;;0.36;2.2;ICPMS;;;0.3;4;2.4;;;;;;;9;ICPMS;;;;;;11.5;ICPMS;;;3.35;ICPMS;;;;;;;;;;;;;;;;;;;;;;;;;;;;;;;;;;;;;;;;;;;;;;;;;;;;;;;;;;;;;;;;;;;;;;;;;;;;;;;;;;;;;