Year;CITATION;SAMPLE NAME;UNIQUE_ID;LOCATION;LOCATION COMMENT;LATITUDE (MIN.);LONGITUDE (MIN.);LATITUDE (MAX.);LONGITUDE (MAX.);ELEVATION (MIN.);ELEVATION (MAX.);SAMPLING TECHNIQUE;DRILLING DEPTH (MIN.);DRILLING DEPTH (MAX.);LAND/SEA (SAMPLING);ROCK TYPE;ROCK NAME;ROCK TEXTURE;SAMPLE COMMENT;AGE (MIN.);AGE (MAX.);GEOLOGICAL AGE;GEOLOGICAL AGE PREFIX;ERUPTION DAY;ERUPTION MONTH;ERUPTION YEAR;ALTERATION;ALTERATION TYPE;TYPE OF MATERIAL;MINERAL / COMPONENT;SPOT (MINERAL);CRYSTAL;RIM / CORE (MINERAL GRAINS);PRIMARY/SECONDARY;INCLUSION TYPE;MINERAL (INCLUSION);HOSTMINERAL (INCLUSION);HEATING;SIO2(WT%);TIO2(WT%);ZRO2(WT%);HFO2(WT%);THO2(WT%);AL2O3(WT%);CR2O3(WT%);LA2O3(WT%);CE2O3(WT%);ND2O3(WT%);SM2O3(WT%);V2O3(WT%);NB2O5(WT%);FE2O3T(WT%);FE2O3(WT%);FEOT(WT%);FEO(WT%);FET(WT%);CAO(WT%);MGO(WT%);MNO(WT%);BAO(WT%);SRO(WT%);NIO(WT%);ZNO(WT%);RB2O(WT%);K2O(WT%);;;;NA2O(WT%);P2O5(WT%);AS2O5(WT%);H2O(WT%);H2OP(WT%);H2OM(WT%);CO2(WT%);C(WT%);F(WT%);CL(WT%);OH(WT%);SO3(WT%);S(WT%);LOI(WT%);TI(WT%);CA(WT%);K(WT%);LI(PPM);BE(PPM);B(PPM);F(PPM);P(PPM);S(PPM);CL(PPM);AR40(AT/G);;;;AR40(CCMSTP/G);;;;AR40(MOL/G);;;;AR40(PPB);K(PPM);SC(PPM);;;;TI(PPM);V(PPM);;;;CR(PPM);;;;CO(PPM);;;;NI(PPM);;;;CU(PPM);;;;ZN(PPM);;;;GA(PPM);;;;GE(PPM);AS(PPM);AS(PPB);SE(PPM);RB(PPM);;;;;;SR(PPM);;;;;;Y(PPM);;;;ZR(PPM);;;;NB(PPM);;;;MO(PPM);AG(PPM);CD(PPM);IN(PPM);SN(PPM);SB(PPM): altern. values or methods;;;;TE(PPM);CS(PPM): altern. values or methods;;;;BA(PPM): altern. values or methods;;;;LA(PPM): altern. values or methods;;;;CE(PPM): altern. values or methods;;;;PR(PPM);ND(PPM): altern. values or methods;;;;;;SM(PPM): altern. values or methods;;;;EU(PPM): altern. values or methods;;;;GD(PPM): altern. values or methods;;;;TB(PPM): altern. values or methods;;;;DY(PPM): altern. values or methods;;;;HO(PPM);ER(PPM): altern. values or methods;;;;TM(PPM);YB(PPM): altern. values or methods;;;;LU(PPM);HF(PPM);TA(PPM);W(PPM);RE(PPM);AU(PPM);HG(PPM);HG(PPB);TL(PPM);PB(PPM): altern. values or methods;;;;BI(PPM);PO210_ACT(DPM/G);RA226_ACT(DPM/G);TH(PPM): altern. values or methods;;;;U(PPM): altern. values or methods;;;;ND143_ND144;ND143_ND144_INI;EPSILON_ND;EPSILON_ND_INI;SM147_ND144;SR87_SR86;SR87_SR86_INI;EPSILON_SR_INI;RB87_SR86;PB206_PB204: altern. values or methods;;;;PB206_PB204_INI;PB207_PB204: altern. values or methods;;;;PB207_PB204_INI;PB207_PB206;PB208_PB204: altern. values or methods;;;;PB208_PB204_INI;PB208_PB206;HF176_HF177;LU176_HF177;AR38_AR36;AR40_AR36;AR40_AR36_INI;PB206_U238;PB207_U235;RA226_TH230_ACT;PA231_U235_ACT;TH230_TH232_ACT;TH230_U238_ACT;TH232_PB204;U234_U238_ACT;U235_PB204;U238_PB204;U238_TH232_ACT;D7LI(VS LSVEC);D13C(VS PDB);D18O(PER MIL);D18O(VS SMOW);D18O(VS VSMOW);D34S(VS VCDT);ALBITE(MOL%);ANORTHITE(MOL%);CA OLIVINE(MOL%);CHROMITE(MOL%);ENSTATITE(MOL%);FAYALITE(MOL%);FORSTERITE(MOL%);FERROSILITE(MOL%);HEMATITE(MOL%);HERCYNITE(MOL%);ILMENITE(MOL%);MAGNESIOFERRITE(MOL%);MONTICELLITE(MOL%);MAGNETITE(MOL%);ORTHOCLASE(MOL%);PICROCHROMITE(MOL%);SPINEL(MOL%);TEPHROITE(MOL%);ULVOSPINEL(MOL%);WOLLASTONITE(MOL%);AGE(KA): altern. values or methods;;;;;;AGE(MA): altern. values or methods;;;;;;AGE_PB207_U235(MA);AGE_PB206_U238(MA);
2009;[13787] SMITH D. J.(2009)  [GeoReM [4914] ];samp. SV12;96240;SOLOMON ISLAND ARC / SOLOMON ISLAND ARC - CENTRAL PROVINCE / SAVO;POGHOROVURAGHALA FAN;-9.17;159.83;-9.17;159.83;;;OUTCROP;;;SUBAQUATIC;VOLCANIC ROCK;BENMOREITE;;;;;;;;;;;;MINERAL / COMPONENT (INCL. GROUNDMASS);FELDSPAR;13-108;;RIM;PRIMARY;;;;;57.281;0;;;;26.478;0.006;;;;;;;;;0.289;;;8.854;0;0;;;0.009;;;0.395;EMP (EPMA);;;6.185;;;;;;;;;;;;;;;;;;;;;;;;;;;;;;;;;;;;;;;;;;;;;;;;;;;;;;;;;;;;;;;;;;;;;;;;;;;;;;;;;;;;;;;;;;;;;;;;;;;;;;;;;;;;;;;;;;;;;;;;;;;;;;;;;;;;;;;;;;;;;;;;;;;;;;;;;;;;;;;;;;;;;;;;;;;;;;;;;;;;;;;;;;;;;;;;;;;;;;;;;;;;;;;;;;;;;;;;;;;;;;;;;;;;;;;;;;54.5542557482856;43.1544977813635;;;;;;;;;;;;;2.29124647035095;;;;;;;;;;;;;;;;;;;;
2009;[13787] SMITH D. J.(2009)  [GeoReM [4914] ];samp. SV12;96240;SOLOMON ISLAND ARC / SOLOMON ISLAND ARC - CENTRAL PROVINCE / SAVO;POGHOROVURAGHALA FAN;-9.17;159.83;-9.17;159.83;;;OUTCROP;;;SUBAQUATIC;VOLCANIC ROCK;BENMOREITE;;;;;;;;;;;;MINERAL / COMPONENT (INCL. GROUNDMASS);FELDSPAR;13-109;;CORE;PRIMARY;;;;;59.849;0.006;;;;24.629;0.037;;;;;;;;;0.173;;;7.046;0;0.01;;;0;;;0.566;EMP (EPMA);;;7.157;;;;;;;;;;;;;;;;;;;;;;;;;;;;;;;;;;;;;;;;;;;;;;;;;;;;;;;;;;;;;;;;;;;;;;;;;;;;;;;;;;;;;;;;;;;;;;;;;;;;;;;;;;;;;;;;;;;;;;;;;;;;;;;;;;;;;;;;;;;;;;;;;;;;;;;;;;;;;;;;;;;;;;;;;;;;;;;;;;;;;;;;;;;;;;;;;;;;;;;;;;;;;;;;;;;;;;;;;;;;;;;;;;;;;;;;;;62.6549669940428;34.0846884559652;;;;;;;;;;;;;3.26034454999195;;;;;;;;;;;;;;;;;;;;
2009;[13787] SMITH D. J.(2009)  [GeoReM [4914] ];samp. SV12;96240;SOLOMON ISLAND ARC / SOLOMON ISLAND ARC - CENTRAL PROVINCE / SAVO;POGHOROVURAGHALA FAN;-9.17;159.83;-9.17;159.83;;;OUTCROP;;;SUBAQUATIC;VOLCANIC ROCK;BENMOREITE;;;;;;;;;;;;MINERAL / COMPONENT (INCL. GROUNDMASS);FELDSPAR;13-111;;;PRIMARY;;;;;51.556;0;;;;30.063;0;;;;;;;;;0.252;;;13.467;0.002;0.003;;;0.011;;;0.192;EMP (EPMA);;;3.709;;;;;;;;;;;;;;;;;;;;;;;;;;;;;;;;;;;;;;;;;;;;;;;;;;;;;;;;;;;;;;;;;;;;;;;;;;;;;;;;;;;;;;;;;;;;;;;;;;;;;;;;;;;;;;;;;;;;;;;;;;;;;;;;;;;;;;;;;;;;;;;;;;;;;;;;;;;;;;;;;;;;;;;;;;;;;;;;;;;;;;;;;;;;;;;;;;;;;;;;;;;;;;;;;;;;;;;;;;;;;;;;;;;;;;;;;;32.8887469051993;65.9931315390145;;;;;;;;;;;;;1.11812155578628;;;;;;;;;;;;;;;;;;;;
2009;[13787] SMITH D. J.(2009)  [GeoReM [4914] ];samp. SV12;96240;SOLOMON ISLAND ARC / SOLOMON ISLAND ARC - CENTRAL PROVINCE / SAVO;POGHOROVURAGHALA FAN;-9.17;159.83;-9.17;159.83;;;OUTCROP;;;SUBAQUATIC;VOLCANIC ROCK;BENMOREITE;;;;;;;;;;;;MINERAL / COMPONENT (INCL. GROUNDMASS);FELDSPAR;13-112;;;PRIMARY;;;;;53.983;0.073;;;;28.242;0.006;;;;;;;;;0.206;;;11.229;0.075;0;;;0.011;;;0.267;EMP (EPMA);;;4.872;;;;;;;;;;;;;;;;;;;;;;;;;;;;;;;;;;;;;;;;;;;;;;;;;;;;;;;;;;;;;;;;;;;;;;;;;;;;;;;;;;;;;;;;;;;;;;;;;;;;;;;;;;;;;;;;;;;;;;;;;;;;;;;;;;;;;;;;;;;;;;;;;;;;;;;;;;;;;;;;;;;;;;;;;;;;;;;;;;;;;;;;;;;;;;;;;;;;;;;;;;;;;;;;;;;;;;;;;;;;;;;;;;;;;;;;;;43.2977270901936;55.144165127299;;;;;;;;;;;;;1.55810778250743;;;;;;;;;;;;;;;;;;;;
2009;[13787] SMITH D. J.(2009)  [GeoReM [4914] ];samp. SV12;96240;SOLOMON ISLAND ARC / SOLOMON ISLAND ARC - CENTRAL PROVINCE / SAVO;POGHOROVURAGHALA FAN;-9.17;159.83;-9.17;159.83;;;OUTCROP;;;SUBAQUATIC;VOLCANIC ROCK;BENMOREITE;;;;;;;;;;;;MINERAL / COMPONENT (INCL. GROUNDMASS);FELDSPAR;13-113;;RIM;PRIMARY;;;;;56.789;0;;;;26.479;0;;;;;;;;;0.248;;;9.185;0.064;0;;;0;;;0.433;EMP (EPMA);;;5.903;;;;;;;;;;;;;;;;;;;;;;;;;;;;;;;;;;;;;;;;;;;;;;;;;;;;;;;;;;;;;;;;;;;;;;;;;;;;;;;;;;;;;;;;;;;;;;;;;;;;;;;;;;;;;;;;;;;;;;;;;;;;;;;;;;;;;;;;;;;;;;;;;;;;;;;;;;;;;;;;;;;;;;;;;;;;;;;;;;;;;;;;;;;;;;;;;;;;;;;;;;;;;;;;;;;;;;;;;;;;;;;;;;;;;;;;;;52.4086647268024;45.061429033301;;;;;;;;;;;;;2.52990623989654;;;;;;;;;;;;;;;;;;;;
2009;[13787] SMITH D. J.(2009)  [GeoReM [4914] ];samp. SV12;96240;SOLOMON ISLAND ARC / SOLOMON ISLAND ARC - CENTRAL PROVINCE / SAVO;POGHOROVURAGHALA FAN;-9.17;159.83;-9.17;159.83;;;OUTCROP;;;SUBAQUATIC;VOLCANIC ROCK;BENMOREITE;;;;;;;;;;;;MINERAL / COMPONENT (INCL. GROUNDMASS);FELDSPAR;13-114;;CORE;PRIMARY;;;;;50.122;0.022;;;;30.63;0.008;;;;;;;;;0.435;;;14.325;0.039;0;;;0.007;;;0.133;EMP (EPMA);;;3.247;;;;;;;;;;;;;;;;;;;;;;;;;;;;;;;;;;;;;;;;;;;;;;;;;;;;;;;;;;;;;;;;;;;;;;;;;;;;;;;;;;;;;;;;;;;;;;;;;;;;;;;;;;;;;;;;;;;;;;;;;;;;;;;;;;;;;;;;;;;;;;;;;;;;;;;;;;;;;;;;;;;;;;;;;;;;;;;;;;;;;;;;;;;;;;;;;;;;;;;;;;;;;;;;;;;;;;;;;;;;;;;;;;;;;;;;;;28.86220879383;70.3585910789537;;;;;;;;;;;;;0.779200127216347;;;;;;;;;;;;;;;;;;;;
2009;[13787] SMITH D. J.(2009)  [GeoReM [4914] ];samp. SV12;96240;SOLOMON ISLAND ARC / SOLOMON ISLAND ARC - CENTRAL PROVINCE / SAVO;POGHOROVURAGHALA FAN;-9.17;159.83;-9.17;159.83;;;OUTCROP;;;SUBAQUATIC;VOLCANIC ROCK;BENMOREITE;;;;;;;;;;;;MINERAL / COMPONENT (INCL. GROUNDMASS);FELDSPAR;13-115;;;PRIMARY;;;;;50.387;0;;;;30.628;0;;;;;;;;;0.459;;;14.307;0.05;0.029;;;0.003;;;0.116;EMP (EPMA);;;3.324;;;;;;;;;;;;;;;;;;;;;;;;;;;;;;;;;;;;;;;;;;;;;;;;;;;;;;;;;;;;;;;;;;;;;;;;;;;;;;;;;;;;;;;;;;;;;;;;;;;;;;;;;;;;;;;;;;;;;;;;;;;;;;;;;;;;;;;;;;;;;;;;;;;;;;;;;;;;;;;;;;;;;;;;;;;;;;;;;;;;;;;;;;;;;;;;;;;;;;;;;;;;;;;;;;;;;;;;;;;;;;;;;;;;;;;;;;29.3982216576691;69.926960939981;;;;;;;;;;;;;0.674817402349952;;;;;;;;;;;;;;;;;;;;
2009;[13787] SMITH D. J.(2009)  [GeoReM [4914] ];samp. SV12;96240;SOLOMON ISLAND ARC / SOLOMON ISLAND ARC - CENTRAL PROVINCE / SAVO;POGHOROVURAGHALA FAN;-9.17;159.83;-9.17;159.83;;;OUTCROP;;;SUBAQUATIC;VOLCANIC ROCK;BENMOREITE;;;;;;;;;;;;MINERAL / COMPONENT (INCL. GROUNDMASS);FELDSPAR;13-116;;;PRIMARY;;;;;50.913;0.008;;;;30.21;0.006;;;;;;;;;0.5;;;13.849;0.037;0.055;;;0;;;0.176;EMP (EPMA);;;3.47;;;;;;;;;;;;;;;;;;;;;;;;;;;;;;;;;;;;;;;;;;;;;;;;;;;;;;;;;;;;;;;;;;;;;;;;;;;;;;;;;;;;;;;;;;;;;;;;;;;;;;;;;;;;;;;;;;;;;;;;;;;;;;;;;;;;;;;;;;;;;;;;;;;;;;;;;;;;;;;;;;;;;;;;;;;;;;;;;;;;;;;;;;;;;;;;;;;;;;;;;;;;;;;;;;;;;;;;;;;;;;;;;;;;;;;;;;30.8755392235181;68.0939447196038;;;;;;;;;;;;;1.0305160568781;;;;;;;;;;;;;;;;;;;;
2009;[13787] SMITH D. J.(2009)  [GeoReM [4914] ];samp. SV12;96240;SOLOMON ISLAND ARC / SOLOMON ISLAND ARC - CENTRAL PROVINCE / SAVO;POGHOROVURAGHALA FAN;-9.17;159.83;-9.17;159.83;;;OUTCROP;;;SUBAQUATIC;VOLCANIC ROCK;BENMOREITE;;;;;;;;;;;;MINERAL / COMPONENT (INCL. GROUNDMASS);FELDSPAR;13-117;;;PRIMARY;;;;;96.95;0.033;;;;0.889;0;;;;;;;;;0.017;;;0.134;0.005;0.03;;;0;;;0.03;EMP (EPMA);;;0.344;;;;;;;;;;;;;;;;;;;;;;;;;;;;;;;;;;;;;;;;;;;;;;;;;;;;;;;;;;;;;;;;;;;;;;;;;;;;;;;;;;;;;;;;;;;;;;;;;;;;;;;;;;;;;;;;;;;;;;;;;;;;;;;;;;;;;;;;;;;;;;;;;;;;;;;;;;;;;;;;;;;;;;;;;;;;;;;;;;;;;;;;;;;;;;;;;;;;;;;;;;;;;;;;;;;;;;;;;;;;;;;;;;;;;;;;;;78.5219399538106;16.8591224018476;;;;;;;;;;;;;4.6189376443418;;;;;;;;;;;;;;;;;;;;
2009;[13787] SMITH D. J.(2009)  [GeoReM [4914] ];samp. SV12;96240;SOLOMON ISLAND ARC / SOLOMON ISLAND ARC - CENTRAL PROVINCE / SAVO;POGHOROVURAGHALA FAN;-9.17;159.83;-9.17;159.83;;;OUTCROP;;;SUBAQUATIC;VOLCANIC ROCK;BENMOREITE;;;;;;;;;;;;MINERAL / COMPONENT (INCL. GROUNDMASS);FELDSPAR;13-118;;;PRIMARY;;;;;49.093;0;;;;31.438;0;;;;;;;;;0.465;;;15.263;0.019;0.026;;;0;;;0.107;EMP (EPMA);;;2.723;;;;;;;;;;;;;;;;;;;;;;;;;;;;;;;;;;;;;;;;;;;;;;;;;;;;;;;;;;;;;;;;;;;;;;;;;;;;;;;;;;;;;;;;;;;;;;;;;;;;;;;;;;;;;;;;;;;;;;;;;;;;;;;;;;;;;;;;;;;;;;;;;;;;;;;;;;;;;;;;;;;;;;;;;;;;;;;;;;;;;;;;;;;;;;;;;;;;;;;;;;;;;;;;;;;;;;;;;;;;;;;;;;;;;;;;;;24.24990051731;75.1213688818146;;;;;;;;;;;;;0.628730600875448;;;;;;;;;;;;;;;;;;;;
2009;[13787] SMITH D. J.(2009)  [GeoReM [4914] ];samp. SV12;96240;SOLOMON ISLAND ARC / SOLOMON ISLAND ARC - CENTRAL PROVINCE / SAVO;POGHOROVURAGHALA FAN;-9.17;159.83;-9.17;159.83;;;OUTCROP;;;SUBAQUATIC;VOLCANIC ROCK;BENMOREITE;;;;;;;;;;;;MINERAL / COMPONENT (INCL. GROUNDMASS);FELDSPAR;13-119;;;PRIMARY;;;;;54.31;0;;;;27.81;0.008;;;;;;;;;0.366;;;11.067;0.016;0.001;;;0.006;;;0.335;EMP (EPMA);;;4.987;;;;;;;;;;;;;;;;;;;;;;;;;;;;;;;;;;;;;;;;;;;;;;;;;;;;;;;;;;;;;;;;;;;;;;;;;;;;;;;;;;;;;;;;;;;;;;;;;;;;;;;;;;;;;;;;;;;;;;;;;;;;;;;;;;;;;;;;;;;;;;;;;;;;;;;;;;;;;;;;;;;;;;;;;;;;;;;;;;;;;;;;;;;;;;;;;;;;;;;;;;;;;;;;;;;;;;;;;;;;;;;;;;;;;;;;;;44.0405006776688;54.0141911823328;;;;;;;;;;;;;1.94530813999841;;;;;;;;;;;;;;;;;;;;
2009;[13787] SMITH D. J.(2009)  [GeoReM [4914] ];samp. SV12;96240;SOLOMON ISLAND ARC / SOLOMON ISLAND ARC - CENTRAL PROVINCE / SAVO;POGHOROVURAGHALA FAN;-9.17;159.83;-9.17;159.83;;;OUTCROP;;;SUBAQUATIC;VOLCANIC ROCK;BENMOREITE;;;;;;;;;;;;MINERAL / COMPONENT (INCL. GROUNDMASS);FELDSPAR;13-120;;;PRIMARY;;;;;56.28;0;;;;26.642;0.037;;;;;;;;;0.432;;;9.854;0.127;0;;;0.04;;;0.537;EMP (EPMA);;;5.508;;;;;;;;;;;;;;;;;;;;;;;;;;;;;;;;;;;;;;;;;;;;;;;;;;;;;;;;;;;;;;;;;;;;;;;;;;;;;;;;;;;;;;;;;;;;;;;;;;;;;;;;;;;;;;;;;;;;;;;;;;;;;;;;;;;;;;;;;;;;;;;;;;;;;;;;;;;;;;;;;;;;;;;;;;;;;;;;;;;;;;;;;;;;;;;;;;;;;;;;;;;;;;;;;;;;;;;;;;;;;;;;;;;;;;;;;;48.7156775907883;48.1600773009099;;;;;;;;;;;;;3.1242451083018;;;;;;;;;;;;;;;;;;;;
2009;[13787] SMITH D. J.(2009)  [GeoReM [4914] ];samp. SV12;96240;SOLOMON ISLAND ARC / SOLOMON ISLAND ARC - CENTRAL PROVINCE / SAVO;POGHOROVURAGHALA FAN;-9.17;159.83;-9.17;159.83;;;OUTCROP;;;SUBAQUATIC;VOLCANIC ROCK;BENMOREITE;;;;;;;;;;;;MINERAL / COMPONENT (INCL. GROUNDMASS);FELDSPAR;13-122;;;PRIMARY;;;;;52.167;0;;;;29.484;0.019;;;;;;;;;0.469;;;12.974;0.043;0.039;;;0;;;0.183;EMP (EPMA);;;4.16;;;;;;;;;;;;;;;;;;;;;;;;;;;;;;;;;;;;;;;;;;;;;;;;;;;;;;;;;;;;;;;;;;;;;;;;;;;;;;;;;;;;;;;;;;;;;;;;;;;;;;;;;;;;;;;;;;;;;;;;;;;;;;;;;;;;;;;;;;;;;;;;;;;;;;;;;;;;;;;;;;;;;;;;;;;;;;;;;;;;;;;;;;;;;;;;;;;;;;;;;;;;;;;;;;;;;;;;;;;;;;;;;;;;;;;;;;36.3342530547891;62.6172644856129;;;;;;;;;;;;;1.04848245959795;;;;;;;;;;;;;;;;;;;;
2009;[13787] SMITH D. J.(2009)  [GeoReM [4914] ];samp. SV12;96240;SOLOMON ISLAND ARC / SOLOMON ISLAND ARC - CENTRAL PROVINCE / SAVO;POGHOROVURAGHALA FAN;-9.17;159.83;-9.17;159.83;;;OUTCROP;;;SUBAQUATIC;VOLCANIC ROCK;BENMOREITE;;;;;;;;;;;;MINERAL / COMPONENT (INCL. GROUNDMASS);FELDSPAR;13-123;;;PRIMARY;;;;;55.331;0.036;;;;27.113;0;;;;;;;;;0.332;;;10.236;0.101;0.014;;;0.027;;;0.373;EMP (EPMA);;;5.468;;;;;;;;;;;;;;;;;;;;;;;;;;;;;;;;;;;;;;;;;;;;;;;;;;;;;;;;;;;;;;;;;;;;;;;;;;;;;;;;;;;;;;;;;;;;;;;;;;;;;;;;;;;;;;;;;;;;;;;;;;;;;;;;;;;;;;;;;;;;;;;;;;;;;;;;;;;;;;;;;;;;;;;;;;;;;;;;;;;;;;;;;;;;;;;;;;;;;;;;;;;;;;;;;;;;;;;;;;;;;;;;;;;;;;;;;;48.0920895403489;49.7490639687724;;;;;;;;;;;;;2.15884649087867;;;;;;;;;;;;;;;;;;;;
2009;[13787] SMITH D. J.(2009)  [GeoReM [4914] ];samp. SV12;96240;SOLOMON ISLAND ARC / SOLOMON ISLAND ARC - CENTRAL PROVINCE / SAVO;POGHOROVURAGHALA FAN;-9.17;159.83;-9.17;159.83;;;OUTCROP;;;SUBAQUATIC;VOLCANIC ROCK;BENMOREITE;;;;;;;;;;;;MINERAL / COMPONENT (INCL. GROUNDMASS);FELDSPAR;13-124;;;PRIMARY;;;;;55.544;0;;;;27.193;0;;;;;;;;;0.419;;;10.285;0.019;0.016;;;0;;;0.382;EMP (EPMA);;;5.433;;;;;;;;;;;;;;;;;;;;;;;;;;;;;;;;;;;;;;;;;;;;;;;;;;;;;;;;;;;;;;;;;;;;;;;;;;;;;;;;;;;;;;;;;;;;;;;;;;;;;;;;;;;;;;;;;;;;;;;;;;;;;;;;;;;;;;;;;;;;;;;;;;;;;;;;;;;;;;;;;;;;;;;;;;;;;;;;;;;;;;;;;;;;;;;;;;;;;;;;;;;;;;;;;;;;;;;;;;;;;;;;;;;;;;;;;;47.7951749480748;49.9920115034351;;;;;;;;;;;;;2.21281354849017;;;;;;;;;;;;;;;;;;;;
2009;[13787] SMITH D. J.(2009)  [GeoReM [4914] ];samp. SV12;96240;SOLOMON ISLAND ARC / SOLOMON ISLAND ARC - CENTRAL PROVINCE / SAVO;POGHOROVURAGHALA FAN;-9.17;159.83;-9.17;159.83;;;OUTCROP;;;SUBAQUATIC;VOLCANIC ROCK;BENMOREITE;;;;;;;;;;;;MINERAL / COMPONENT (INCL. GROUNDMASS);FELDSPAR;13-125;;RIM;PRIMARY;;;;;60.603;0;;;;24.182;0;;;;;;;;;0.302;;;6.535;0;0.016;;;0.008;;;0.639;EMP (EPMA);;;7.239;;;;;;;;;;;;;;;;;;;;;;;;;;;;;;;;;;;;;;;;;;;;;;;;;;;;;;;;;;;;;;;;;;;;;;;;;;;;;;;;;;;;;;;;;;;;;;;;;;;;;;;;;;;;;;;;;;;;;;;;;;;;;;;;;;;;;;;;;;;;;;;;;;;;;;;;;;;;;;;;;;;;;;;;;;;;;;;;;;;;;;;;;;;;;;;;;;;;;;;;;;;;;;;;;;;;;;;;;;;;;;;;;;;;;;;;;;64.2302346496607;32.0415338075382;;;;;;;;;;;;;3.72823154280108;;;;;;;;;;;;;;;;;;;;
2009;[13787] SMITH D. J.(2009)  [GeoReM [4914] ];samp. SV12;96240;SOLOMON ISLAND ARC / SOLOMON ISLAND ARC - CENTRAL PROVINCE / SAVO;POGHOROVURAGHALA FAN;-9.17;159.83;-9.17;159.83;;;OUTCROP;;;SUBAQUATIC;VOLCANIC ROCK;BENMOREITE;;;;;;;;;;;;MINERAL / COMPONENT (INCL. GROUNDMASS);FELDSPAR;13-126;;;PRIMARY;;;;;54.836;0;;;;27.667;0;;;;;;;;;0.532;;;10.913;0.009;0.017;;;0;;;0.377;EMP (EPMA);;;5.095;;;;;;;;;;;;;;;;;;;;;;;;;;;;;;;;;;;;;;;;;;;;;;;;;;;;;;;;;;;;;;;;;;;;;;;;;;;;;;;;;;;;;;;;;;;;;;;;;;;;;;;;;;;;;;;;;;;;;;;;;;;;;;;;;;;;;;;;;;;;;;;;;;;;;;;;;;;;;;;;;;;;;;;;;;;;;;;;;;;;;;;;;;;;;;;;;;;;;;;;;;;;;;;;;;;;;;;;;;;;;;;;;;;;;;;;;;44.7981490346258;53.0237753310994;;;;;;;;;;;;;2.17807563427477;;;;;;;;;;;;;;;;;;;;
2009;[13787] SMITH D. J.(2009)  [GeoReM [4914] ];samp. SV12;96240;SOLOMON ISLAND ARC / SOLOMON ISLAND ARC - CENTRAL PROVINCE / SAVO;POGHOROVURAGHALA FAN;-9.17;159.83;-9.17;159.83;;;OUTCROP;;;SUBAQUATIC;VOLCANIC ROCK;BENMOREITE;;;;;;;;;;;;MINERAL / COMPONENT (INCL. GROUNDMASS);FELDSPAR;13-127;;;PRIMARY;;;;;54.457;0.016;;;;27.903;0.014;;;;;;;;;0.467;;;11.008;0.014;0;;;0.004;;;0.366;EMP (EPMA);;;5.056;;;;;;;;;;;;;;;;;;;;;;;;;;;;;;;;;;;;;;;;;;;;;;;;;;;;;;;;;;;;;;;;;;;;;;;;;;;;;;;;;;;;;;;;;;;;;;;;;;;;;;;;;;;;;;;;;;;;;;;;;;;;;;;;;;;;;;;;;;;;;;;;;;;;;;;;;;;;;;;;;;;;;;;;;;;;;;;;;;;;;;;;;;;;;;;;;;;;;;;;;;;;;;;;;;;;;;;;;;;;;;;;;;;;;;;;;;44.4285259471506;53.4543139127666;;;;;;;;;;;;;2.11716014008278;;;;;;;;;;;;;;;;;;;;
2009;[13787] SMITH D. J.(2009)  [GeoReM [4914] ];samp. SV12;96240;SOLOMON ISLAND ARC / SOLOMON ISLAND ARC - CENTRAL PROVINCE / SAVO;POGHOROVURAGHALA FAN;-9.17;159.83;-9.17;159.83;;;OUTCROP;;;SUBAQUATIC;VOLCANIC ROCK;BENMOREITE;;;;;;;;;;;;MINERAL / COMPONENT (INCL. GROUNDMASS);FELDSPAR;13-128;;;PRIMARY;;;;;59.548;0.023;;;;24.484;0.014;;;;;;;;;0.353;;;7.17;0;0.027;;;0.002;;;0.633;EMP (EPMA);;;6.907;;;;;;;;;;;;;;;;;;;;;;;;;;;;;;;;;;;;;;;;;;;;;;;;;;;;;;;;;;;;;;;;;;;;;;;;;;;;;;;;;;;;;;;;;;;;;;;;;;;;;;;;;;;;;;;;;;;;;;;;;;;;;;;;;;;;;;;;;;;;;;;;;;;;;;;;;;;;;;;;;;;;;;;;;;;;;;;;;;;;;;;;;;;;;;;;;;;;;;;;;;;;;;;;;;;;;;;;;;;;;;;;;;;;;;;;;;61.2039591108227;35.1046568229758;;;;;;;;;;;;;3.69138406620153;;;;;;;;;;;;;;;;;;;;
2009;[13787] SMITH D. J.(2009)  [GeoReM [4914] ];samp. SV12;96240;SOLOMON ISLAND ARC / SOLOMON ISLAND ARC - CENTRAL PROVINCE / SAVO;POGHOROVURAGHALA FAN;-9.17;159.83;-9.17;159.83;;;OUTCROP;;;SUBAQUATIC;VOLCANIC ROCK;BENMOREITE;;;;;;;;;;;;MINERAL / COMPONENT (INCL. GROUNDMASS);FELDSPAR;14-076;;;PRIMARY;;;;;48.116;;;;;32.731;;;;;;;;;;0.407;;;16.348;;;0.016;0.139;;;;0.13;EMP (EPMA);;;2.178;;;;;;;;;;;;;;;;;;;;;;;;;;;;;;;;;;;;;;;;;;;;;;;;;;;;;;;;;;;;;;;;;;;;;;;;;;;;;;;;;;;;;;;;;;;;;;;;;;;;;;;;;;;;;;;;;;;;;;;;;;;;;;;;;;;;;;;;;;;;;;;;;;;;;;;;;;;;;;;;;;;;;;;;;;;;;;;;;;;;;;;;;;;;;;;;;;;;;;;;;;;;;;;;;;;;;;;;;;;;;;;;;;;;;;;;;;19.2781865181945;79.9637104792205;;;;;;;;;;;;;0.758103002585007;;;;;;;;;;;;;;;;;;;;
2009;[13787] SMITH D. J.(2009)  [GeoReM [4914] ];samp. SV12;96240;SOLOMON ISLAND ARC / SOLOMON ISLAND ARC - CENTRAL PROVINCE / SAVO;POGHOROVURAGHALA FAN;-9.17;159.83;-9.17;159.83;;;OUTCROP;;;SUBAQUATIC;VOLCANIC ROCK;BENMOREITE;;;;;;;;;;;;MINERAL / COMPONENT (INCL. GROUNDMASS);FELDSPAR;14-077;;;PRIMARY;;;;;46.3;;;;;33.475;;;;;;;;;;0.634;;;17.396;;;0.007;0.086;;;;0.058;EMP (EPMA);;;1.62;;;;;;;;;;;;;;;;;;;;;;;;;;;;;;;;;;;;;;;;;;;;;;;;;;;;;;;;;;;;;;;;;;;;;;;;;;;;;;;;;;;;;;;;;;;;;;;;;;;;;;;;;;;;;;;;;;;;;;;;;;;;;;;;;;;;;;;;;;;;;;;;;;;;;;;;;;;;;;;;;;;;;;;;;;;;;;;;;;;;;;;;;;;;;;;;;;;;;;;;;;;;;;;;;;;;;;;;;;;;;;;;;;;;;;;;;;14.3724546464273;85.2893989880291;;;;;;;;;;;;;0.338146365543626;;;;;;;;;;;;;;;;;;;;
2009;[13787] SMITH D. J.(2009)  [GeoReM [4914] ];samp. SV12;96240;SOLOMON ISLAND ARC / SOLOMON ISLAND ARC - CENTRAL PROVINCE / SAVO;POGHOROVURAGHALA FAN;-9.17;159.83;-9.17;159.83;;;OUTCROP;;;SUBAQUATIC;VOLCANIC ROCK;BENMOREITE;;;;;;;;;;;;MINERAL / COMPONENT (INCL. GROUNDMASS);FELDSPAR;14-078;;;PRIMARY;;;;;51.82;;;;;29.978;;;;;;;;;;0.44;;;13.204;;;0;0.12;;;;0.185;EMP (EPMA);;;3.755;;;;;;;;;;;;;;;;;;;;;;;;;;;;;;;;;;;;;;;;;;;;;;;;;;;;;;;;;;;;;;;;;;;;;;;;;;;;;;;;;;;;;;;;;;;;;;;;;;;;;;;;;;;;;;;;;;;;;;;;;;;;;;;;;;;;;;;;;;;;;;;;;;;;;;;;;;;;;;;;;;;;;;;;;;;;;;;;;;;;;;;;;;;;;;;;;;;;;;;;;;;;;;;;;;;;;;;;;;;;;;;;;;;;;;;;;;33.6067642604745;65.3028773346795;;;;;;;;;;;;;1.09035840484604;;;;;;;;;;;;;;;;;;;;
2009;[13787] SMITH D. J.(2009)  [GeoReM [4914] ];samp. SV12;96240;SOLOMON ISLAND ARC / SOLOMON ISLAND ARC - CENTRAL PROVINCE / SAVO;POGHOROVURAGHALA FAN;-9.17;159.83;-9.17;159.83;;;OUTCROP;;;SUBAQUATIC;VOLCANIC ROCK;BENMOREITE;;;;;;;;;;;;MINERAL / COMPONENT (INCL. GROUNDMASS);FELDSPAR;14-079;;;PRIMARY;;;;;59.152;;;;;25.364;;;;;;;;;;0.322;;;7.618;;;0.013;0.104;;;;0.597;EMP (EPMA);;;6.75;;;;;;;;;;;;;;;;;;;;;;;;;;;;;;;;;;;;;;;;;;;;;;;;;;;;;;;;;;;;;;;;;;;;;;;;;;;;;;;;;;;;;;;;;;;;;;;;;;;;;;;;;;;;;;;;;;;;;;;;;;;;;;;;;;;;;;;;;;;;;;;;;;;;;;;;;;;;;;;;;;;;;;;;;;;;;;;;;;;;;;;;;;;;;;;;;;;;;;;;;;;;;;;;;;;;;;;;;;;;;;;;;;;;;;;;;;59.4569929272188;37.0826678834892;;;;;;;;;;;;;3.46033918929196;;;;;;;;;;;;;;;;;;;;