Year;CITATION;SAMPLE NAME;UNIQUE_ID;LOCATION;LOCATION COMMENT;LATITUDE (MIN.);LONGITUDE (MIN.);LATITUDE (MAX.);LONGITUDE (MAX.);ELEVATION (MIN.);ELEVATION (MAX.);SAMPLING TECHNIQUE;DRILLING DEPTH (MIN.);DRILLING DEPTH (MAX.);LAND/SEA (SAMPLING);ROCK TYPE;ROCK NAME;ROCK TEXTURE;SAMPLE COMMENT;AGE (MIN.);AGE (MAX.);GEOLOGICAL AGE;GEOLOGICAL AGE PREFIX;ERUPTION DAY;ERUPTION MONTH;ERUPTION YEAR;ALTERATION;ALTERATION TYPE;TYPE OF MATERIAL;MINERAL / COMPONENT;SPOT (MINERAL);CRYSTAL;RIM / CORE (MINERAL GRAINS);PRIMARY/SECONDARY;INCLUSION TYPE;MINERAL (INCLUSION);HOSTMINERAL (INCLUSION);HEATING;SIO2(WT%);TIO2(WT%);ZRO2(WT%);HFO2(WT%);THO2(WT%);AL2O3(WT%);CR2O3(WT%);LA2O3(WT%);CE2O3(WT%);ND2O3(WT%);SM2O3(WT%);V2O3(WT%);NB2O5(WT%);FE2O3T(WT%);FE2O3(WT%);FEOT(WT%);FEO(WT%);FET(WT%);CAO(WT%);MGO(WT%);MNO(WT%);BAO(WT%);SRO(WT%);NIO(WT%);ZNO(WT%);RB2O(WT%);K2O(WT%);;;;NA2O(WT%);P2O5(WT%);AS2O5(WT%);H2O(WT%);H2OP(WT%);H2OM(WT%);CO2(WT%);C(WT%);F(WT%);CL(WT%);OH(WT%);SO3(WT%);S(WT%);LOI(WT%);TI(WT%);CA(WT%);K(WT%);LI(PPM);BE(PPM);B(PPM);F(PPM);P(PPM);S(PPM);CL(PPM);AR40(AT/G);;;;AR40(CCMSTP/G);;;;AR40(MOL/G);;;;AR40(PPB);K(PPM);SC(PPM);;;;TI(PPM);V(PPM);;;;CR(PPM);;;;CO(PPM);;;;NI(PPM);;;;CU(PPM);;;;ZN(PPM);;;;GA(PPM);;;;GE(PPM);AS(PPM);AS(PPB);SE(PPM);RB(PPM);;;;;;SR(PPM);;;;;;Y(PPM);;;;ZR(PPM);;;;NB(PPM);;;;MO(PPM);AG(PPM);CD(PPM);IN(PPM);SN(PPM);SB(PPM): altern. values or methods;;;;TE(PPM);CS(PPM): altern. values or methods;;;;BA(PPM): altern. values or methods;;;;LA(PPM): altern. values or methods;;;;CE(PPM): altern. values or methods;;;;PR(PPM);ND(PPM): altern. values or methods;;;;;;SM(PPM): altern. values or methods;;;;EU(PPM): altern. values or methods;;;;GD(PPM): altern. values or methods;;;;TB(PPM): altern. values or methods;;;;DY(PPM): altern. values or methods;;;;HO(PPM);ER(PPM): altern. values or methods;;;;TM(PPM);YB(PPM): altern. values or methods;;;;LU(PPM);HF(PPM);TA(PPM);W(PPM);RE(PPM);AU(PPM);HG(PPM);HG(PPB);TL(PPM);PB(PPM): altern. values or methods;;;;BI(PPM);PO210_ACT(DPM/G);RA226_ACT(DPM/G);TH(PPM): altern. values or methods;;;;U(PPM): altern. values or methods;;;;ND143_ND144;ND143_ND144_INI;EPSILON_ND;EPSILON_ND_INI;SM147_ND144;SR87_SR86;SR87_SR86_INI;EPSILON_SR_INI;RB87_SR86;PB206_PB204: altern. values or methods;;;;PB206_PB204_INI;PB207_PB204: altern. values or methods;;;;PB207_PB204_INI;PB207_PB206;PB208_PB204: altern. values or methods;;;;PB208_PB204_INI;PB208_PB206;HF176_HF177;LU176_HF177;AR38_AR36;AR40_AR36;AR40_AR36_INI;PB206_U238;PB207_U235;RA226_TH230_ACT;PA231_U235_ACT;TH230_TH232_ACT;TH230_U238_ACT;TH232_PB204;U234_U238_ACT;U235_PB204;U238_PB204;U238_TH232_ACT;D7LI(VS LSVEC);D13C(VS PDB);D18O(PER MIL);D18O(VS SMOW);D18O(VS VSMOW);D34S(VS VCDT);ALBITE(MOL%);ANORTHITE(MOL%);CA OLIVINE(MOL%);CHROMITE(MOL%);ENSTATITE(MOL%);FAYALITE(MOL%);FORSTERITE(MOL%);FERROSILITE(MOL%);HEMATITE(MOL%);HERCYNITE(MOL%);ILMENITE(MOL%);MAGNESIOFERRITE(MOL%);MONTICELLITE(MOL%);MAGNETITE(MOL%);ORTHOCLASE(MOL%);PICROCHROMITE(MOL%);SPINEL(MOL%);TEPHROITE(MOL%);ULVOSPINEL(MOL%);WOLLASTONITE(MOL%);AGE(KA): altern. values or methods;;;;;;AGE(MA): altern. values or methods;;;;;;AGE_PB207_U235(MA);AGE_PB206_U238(MA);
2012;[16433] TAGLIANI S. (2012);samp. 1P;;ETNA/SICILY / ELLITTICO SEQUENCE;MT. CALVARIO DOME;37.65;14.87;37.65;14.87;;;OUTCROP;;;SUBAERIAL;VOLCANIC ROCK;BENMOREITE;;LAVA AROUND FISSURES;;;QUATERNARY;;;;;;;MINERAL / COMPONENT (INCL. GROUNDMASS);APATITE;;;;PRIMARY;;;;;0.82;;;;;;;0.79;1.4;;;;;;;;;0;51.48;0;0;;0.1;;0;;0;EMP (EPMA);;;0.28;32.82;8.7;;;;;;4.5;0.14;;0.21;;;;;;;;;;;;;;;;;;;;;;;;;;;;;;;;;;;;;;;;;;;;;;;;;;;;;;;;;;;;;;;;;;;;;;;;;;;;;;;;;;;;;;;;;;;;;;;;;;;;;;;;;;;;;;;;;;;;;;;;;;;;;;;;;;;;;;;;;;;;;;;;;;;;;;;;;;;;;;;;;;;;;;;;;;;;;;;;;;;;;;;;;;;;;;;;;;;;;;;;;;;;;;;;;;;;;;;;;;;;;;;;;;;;;;;;;;;;;;;;;;;;;;;;;;;;;;;;;
2012;[16433] TAGLIANI S. (2012);samp. 2P;;ETNA/SICILY / ELLITTICO SEQUENCE;MT. CALVARIO DOME;37.65;14.87;37.65;14.87;;;OUTCROP;;;SUBAERIAL;VOLCANIC ROCK;BENMOREITE;;LAVA AROUND FISSURES;;;QUATERNARY;;;;;;;MINERAL / COMPONENT (INCL. GROUNDMASS);APATITE;;;;PRIMARY;;;;;0.29;;;;;;;0.11;0.3;;;;;;;;;0.39;53.98;0.24;0.13;;0.12;;0;;0;EMP (EPMA);;;0.15;40.29;0;;;;;;4.52;1.4;;0.34;;;;;;;;;;;;;;;;;;;;;;;;;;;;;;;;;;;;;;;;;;;;;;;;;;;;;;;;;;;;;;;;;;;;;;;;;;;;;;;;;;;;;;;;;;;;;;;;;;;;;;;;;;;;;;;;;;;;;;;;;;;;;;;;;;;;;;;;;;;;;;;;;;;;;;;;;;;;;;;;;;;;;;;;;;;;;;;;;;;;;;;;;;;;;;;;;;;;;;;;;;;;;;;;;;;;;;;;;;;;;;;;;;;;;;;;;;;;;;;;;;;;;;;;;;;;;;;;;
2012;[16433] TAGLIANI S. (2012);samp. 3P;;ETNA/SICILY / ELLITTICO SEQUENCE;MT. CALVARIO DOME;37.65;14.87;37.65;14.87;;;OUTCROP;;;SUBAERIAL;VOLCANIC ROCK;BENMOREITE;;LAVA AROUND FISSURES;;;QUATERNARY;;;;;;;MINERAL / COMPONENT (INCL. GROUNDMASS);APATITE;;;;PRIMARY;;;;;1.07;;;;;;;0.45;0.89;;;;;;;;;0.28;51.45;0.24;0.16;;0.12;;0;;0;EMP (EPMA);;;0.22;33.3;7.04;;;;;;3.96;1.32;;0.32;;;;;;;;;;;;;;;;;;;;;;;;;;;;;;;;;;;;;;;;;;;;;;;;;;;;;;;;;;;;;;;;;;;;;;;;;;;;;;;;;;;;;;;;;;;;;;;;;;;;;;;;;;;;;;;;;;;;;;;;;;;;;;;;;;;;;;;;;;;;;;;;;;;;;;;;;;;;;;;;;;;;;;;;;;;;;;;;;;;;;;;;;;;;;;;;;;;;;;;;;;;;;;;;;;;;;;;;;;;;;;;;;;;;;;;;;;;;;;;;;;;;;;;;;;;;;;;;;
2012;[16706] JUNG S.(2012)  [GeoReM [6968] ];samp. SG 5;;EUROPEAN OROGENIC BELT - CENOZOIC/QUATERNARY / GERMANY / SIEBENGEBIRGE;LBERG;50.6832;7.2494;50.6832;7.2494;;;OUTCROP;;;SUBAERIAL;VOLCANIC ROCK;BENMOREITE;FINE GRAINED, FLOW TEXTURE;;;;OLIGOCENE;;;;;;;WHOLE ROCK;;;;;;;;;;57.92;1.41;;;;17.41;;;;;;;;5.3;;;;;3.75;1.83;0.1;;;;;;4.05;XRF;;;3.98;0.32;;;;;;;;;;;;3.42;;;;29.8;;;;;;;;;;;;;;;;;;;;;10.4;ICPMS;;;;141;ICPMS;;;18.9;ICPMS;;;12.5;ICPMS;;;12.9;ICPMS;;;19.1;ICPMS;;;122;ICPMS;;;23.8;ICPMS;;;;;;;132;ICPMS;;;;;536;ICPMS;;;;;29.9;ICPMS;;;424;ICPMS;;;74;ICPMS;;;;;;;;;;;;;2.28;ICPMS;;;833;ICPMS;;;61.1;ICPMS;;;116;ICPMS;;;12.8;45.7;ICPMS;;;;;8.43;ICPMS;;;2.29;ICPMS;;;6.9;ICPMS;;;0.9;ICPMS;;;5.49;ICPMS;;;1.03;2.94;ICPMS;;;0.43;2.51;ICPMS;;;0.4;8.4;4.2;;;;;;;20.97;ICPMS;;;;;;17.4;ICPMS;;;5.2;ICPMS;;;0.512654;;;;0.111;0.705845;;;0.713;19.38;TIMS;;;;15.68;TIMS;;;;;39.37;TIMS;;;;;;;;;;;;;;;;;;;;;;;;;;;;;;;;;;;;;;;;;;;;;;;;;;;;;;;;;;;;;
2012;[16706] JUNG S.(2012)  [GeoReM [6968] ];samp. SG 7;;EUROPEAN OROGENIC BELT - CENOZOIC/QUATERNARY / GERMANY / SIEBENGEBIRGE;LOHRBERG;50.6729;7.25;50.6729;7.25;;;OUTCROP;;;SUBAERIAL;VOLCANIC ROCK;BENMOREITE;FINE-GRAINED;;;;OLIGOCENE;;;;;;;WHOLE ROCK;;;;;;;;;;60.33;0.93;;;;18.14;;;;;;;;4.34;;;;;3.61;1.06;0.14;;;;;;4.03;XRF;;;4.77;0.27;;;;;;;;;;;;1.94;;;;34.4;;;;;;;;;;;;;;;;;;;;;7.2;ICPMS;;;;86;ICPMS;;;11.5;ICPMS;;;8.32;ICPMS;;;8.3;ICPMS;;;11.7;ICPMS;;;86;ICPMS;;;24.8;ICPMS;;;;;;;142.8;ICPMS;;;;;661;ICPMS;;;;;23.4;ICPMS;;;413;ICPMS;;;72;ICPMS;;;;;;;;;;;;;1.92;ICPMS;;;857;ICPMS;;;66.7;ICPMS;;;121;ICPMS;;;11.8;40.2;ICPMS;;;;;7.11;ICPMS;;;1.87;ICPMS;;;5.59;ICPMS;;;0.75;ICPMS;;;4.3;ICPMS;;;0.81;2.34;ICPMS;;;0.34;2.13;ICPMS;;;0.31;7.8;4.1;;;;;;;14.22;ICPMS;;;;;;18.8;ICPMS;;;5;ICPMS;;;0.512614;;;;0.107;0.705642;;;0.625;19.35;TIMS;;;;15.67;TIMS;;;;;39.33;TIMS;;;;;;;;;;;;;;;;;;;;;;;;;;;;;;;;;;;;;;;;;;;;;;;;;;;;;;;;;;;;;