Year;CITATION;SAMPLE NAME;UNIQUE_ID;LOCATION;LOCATION COMMENT;LATITUDE (MIN.);LONGITUDE (MIN.);LATITUDE (MAX.);LONGITUDE (MAX.);ELEVATION (MIN.);ELEVATION (MAX.);SAMPLING TECHNIQUE;DRILLING DEPTH (MIN.);DRILLING DEPTH (MAX.);LAND/SEA (SAMPLING);ROCK TYPE;ROCK NAME;ROCK TEXTURE;SAMPLE COMMENT;AGE (MIN.);AGE (MAX.);GEOLOGICAL AGE;GEOLOGICAL AGE PREFIX;ERUPTION DAY;ERUPTION MONTH;ERUPTION YEAR;ALTERATION;ALTERATION TYPE;TYPE OF MATERIAL;MINERAL / COMPONENT;SPOT (MINERAL);CRYSTAL;RIM / CORE (MINERAL GRAINS);PRIMARY/SECONDARY;INCLUSION TYPE;MINERAL (INCLUSION);HOSTMINERAL (INCLUSION);HEATING;SIO2(WT%);TIO2(WT%);ZRO2(WT%);HFO2(WT%);THO2(WT%);AL2O3(WT%);CR2O3(WT%);LA2O3(WT%);CE2O3(WT%);ND2O3(WT%);SM2O3(WT%);V2O3(WT%);NB2O5(WT%);FE2O3T(WT%);FE2O3(WT%);FEOT(WT%);FEO(WT%);FET(WT%);CAO(WT%);MGO(WT%);MNO(WT%);BAO(WT%);SRO(WT%);NIO(WT%);ZNO(WT%);RB2O(WT%);K2O(WT%);;;;NA2O(WT%);P2O5(WT%);AS2O5(WT%);H2O(WT%);H2OP(WT%);H2OM(WT%);CO2(WT%);C(WT%);F(WT%);CL(WT%);OH(WT%);SO3(WT%);S(WT%);LOI(WT%);TI(WT%);CA(WT%);K(WT%);LI(PPM);BE(PPM);B(PPM);F(PPM);P(PPM);S(PPM);CL(PPM);AR40(AT/G);;;;AR40(CCMSTP/G);;;;AR40(MOL/G);;;;AR40(PPB);K(PPM);SC(PPM);;;;TI(PPM);V(PPM);;;;CR(PPM);;;;CO(PPM);;;;NI(PPM);;;;CU(PPM);;;;ZN(PPM);;;;GA(PPM);;;;GE(PPM);AS(PPM);AS(PPB);SE(PPM);RB(PPM);;;;;;SR(PPM);;;;;;Y(PPM);;;;ZR(PPM);;;;NB(PPM);;;;MO(PPM);AG(PPM);CD(PPM);IN(PPM);SN(PPM);SB(PPM): altern. values or methods;;;;TE(PPM);CS(PPM): altern. values or methods;;;;BA(PPM): altern. values or methods;;;;LA(PPM): altern. values or methods;;;;CE(PPM): altern. values or methods;;;;PR(PPM);ND(PPM): altern. values or methods;;;;;;SM(PPM): altern. values or methods;;;;EU(PPM): altern. values or methods;;;;GD(PPM): altern. values or methods;;;;TB(PPM): altern. values or methods;;;;DY(PPM): altern. values or methods;;;;HO(PPM);ER(PPM): altern. values or methods;;;;TM(PPM);YB(PPM): altern. values or methods;;;;LU(PPM);HF(PPM);TA(PPM);W(PPM);RE(PPM);AU(PPM);HG(PPM);HG(PPB);TL(PPM);PB(PPM): altern. values or methods;;;;BI(PPM);PO210_ACT(DPM/G);RA226_ACT(DPM/G);TH(PPM): altern. values or methods;;;;U(PPM): altern. values or methods;;;;ND143_ND144;ND143_ND144_INI;EPSILON_ND;EPSILON_ND_INI;SM147_ND144;SR87_SR86;SR87_SR86_INI;EPSILON_SR_INI;RB87_SR86;PB206_PB204: altern. values or methods;;;;PB206_PB204_INI;PB207_PB204: altern. values or methods;;;;PB207_PB204_INI;PB207_PB206;PB208_PB204: altern. values or methods;;;;PB208_PB204_INI;PB208_PB206;HF176_HF177;LU176_HF177;AR38_AR36;AR40_AR36;AR40_AR36_INI;PB206_U238;PB207_U235;RA226_TH230_ACT;PA231_U235_ACT;TH230_TH232_ACT;TH230_U238_ACT;TH232_PB204;U234_U238_ACT;U235_PB204;U238_PB204;U238_TH232_ACT;D7LI(VS LSVEC);D13C(VS PDB);D18O(PER MIL);D18O(VS SMOW);D18O(VS VSMOW);D34S(VS VCDT);ALBITE(MOL%);ANORTHITE(MOL%);CA OLIVINE(MOL%);CHROMITE(MOL%);ENSTATITE(MOL%);FAYALITE(MOL%);FORSTERITE(MOL%);FERROSILITE(MOL%);HEMATITE(MOL%);HERCYNITE(MOL%);ILMENITE(MOL%);MAGNESIOFERRITE(MOL%);MONTICELLITE(MOL%);MAGNETITE(MOL%);ORTHOCLASE(MOL%);PICROCHROMITE(MOL%);SPINEL(MOL%);TEPHROITE(MOL%);ULVOSPINEL(MOL%);WOLLASTONITE(MOL%);AGE(KA): altern. values or methods;;;;;;AGE(MA): altern. values or methods;;;;;;AGE_PB207_U235(MA);AGE_PB206_U238(MA);
1991;[9979] ARMIENTI P. (1991);samp. MB  61;;ANTARCTICA / WEST ANTARCTIC RIFT SYSTEM / ROSS SEA RIFT;RANDOM HILLS, VICTORIA LAND, MCMURDO VOLCANIC GROUP;-74.5;165;-74.5;165;;;OUTCROP;;;SUBAERIAL;VOLCANIC ROCK;BENMOREITE;;;;;NEOGENE;;;;;;;WHOLE ROCK;;;;;;;;;;50.33;2.83;;;;17.26;;;;;;;;;1.98;;7.29;;7.17;4.15;0.18;;;;;;2.31;XRF;;;4.96;0.84;;;;;;;;;;;;0.69;;;;;;;;;;;;;;;;;;;;;;;;;;;;;;192;ICPMS;;;72;XRF;;;25;XRF;;;37;XRF;;;28;XRF;;;;;;;;;;;;;;;74;XRF;;;;;1042;XRF;;;;;36;XRF;;;586;XRF;;;130;XRF;;;;;;;;;;;;;;;;;725;XRF;;;88;ICPMS;;;228;ICPMS;;;;;;;;;;;;;;;;;;;;;;;;;;;;;;;;;;;;;;;;;;;;;;;;;;;;;;;;;;;;;;;;;;;;;;;;;;;;;;;;;;;;;;;;;;;;;;;;;;;;;;;;;;;;;;;;;;;;;;;;;;;;;;;;;;;;;;;;;;;;;;;;;;
1991;[9979] ARMIENTI P. (1991);samp. MB  09;;ANTARCTICA / WEST ANTARCTIC RIFT SYSTEM / ROSS SEA RIFT / MOUNT MELBOURNE;VICTORIA LAND, MCMURDO VOLCANIC GROUP;-74.4;164.7;-74.4;164.7;;;OUTCROP;;;SUBAERIAL;VOLCANIC ROCK;BENMOREITE;;;;;NEOGENE;;;;;;;WHOLE ROCK;;;;;;;;;;64.44;0.51;;;;15.73;;;;;;;;;0.95;;5.14;;2.36;0.3;0.17;;;;;;4.08;XRF;;;5.6;0.08;;;;;;;;;;;;0.64;;;;;;;;;;;;;;;;;;;;;;;;;;;;;;16;ICPMS;;;0;XRF;;;3;XRF;;;5;XRF;;;8;XRF;;;;;;;;;;;;;;;127;XRF;;;;;271;XRF;;;;;54;XRF;;;664;XRF;;;153;XRF;;;;;;;;;;;;;;;;;1189;XRF;;;94;ICPMS;;;209;ICPMS;;;;;;;;;;;;;;;;;;;;;;;;;;;;;;;;;;;;;;;;;;;;;;;;;;;;;;;;;;;;;;;;;;;;;;;;;;;;;;;;;;;;;;;;;;;;;;;;;;;;;;;;;;;;;;;;;;;;;;;;;;;;;;;;;;;;;;;;;;;;;;;;;;
1991;[9979] ARMIENTI P. (1991);samp. MB  11;;ANTARCTICA / WEST ANTARCTIC RIFT SYSTEM / ROSS SEA RIFT / MOUNT MELBOURNE;VICTORIA LAND, MCMURDO VOLCANIC GROUP;-74.4;164.7;-74.4;164.7;;;OUTCROP;;;SUBAERIAL;VOLCANIC ROCK;BENMOREITE;;;;;NEOGENE;;;;;;;WHOLE ROCK;;;;;;;;;;63.75;0.6;;;;15.68;;;;;;;;;1.45;;5.46;;2.65;0.37;0.18;;;;;;3.92;XRF;;;5.18;0.1;;;;;;;;;;;;0.65;;;;;;;;;;;;;;;;;;;;;;;;;;;;;;16;ICPMS;;;0;XRF;;;6;XRF;;;5;XRF;;;3;XRF;;;;;;;;;;;;;;;124;XRF;;;;;304;XRF;;;;;53;XRF;;;667;XRF;;;149;XRF;;;;;;;;;;;;;;;;;1160;XRF;;;94;ICPMS;;;210;ICPMS;;;;;;;;;;;;;;;;;;;;;;;;;;;;;;;;;;;;;;;;;;;;;;;;;;;;;;;;;;;;;;;;;;;;;;;;;;;;;;;;;;;;;;;;;;;;;;;;;;;;;;;;;;;;;;;;;;;;;;;;;;;;;;;;;;;;;;;;;;;;;;;;;;
1991;[9979] ARMIENTI P. (1991);samp. MB  14;;ANTARCTICA / WEST ANTARCTIC RIFT SYSTEM / ROSS SEA RIFT / MOUNT MELBOURNE;VICTORIA LAND, MCMURDO VOLCANIC GROUP;-74.4;164.7;-74.4;164.7;;;OUTCROP;;;SUBAERIAL;VOLCANIC ROCK;BENMOREITE;;;;;NEOGENE;;;;;;;WHOLE ROCK;;;;;;;;;;63.31;0.66;;;;15.71;;;;;;;;;1.27;;5.84;;2.75;0.42;0.19;;;;;;3.85;XRF;;;5.36;0.11;;;;;;;;;;;;0.53;;;;;;;;;;;;;;;;;;;;;;;;;;;;;;18;ICPMS;;;0;XRF;;;4;XRF;;;3;XRF;;;6;XRF;;;;;;;;;;;;;;;120;XRF;;;;;319;XRF;;;;;53;XRF;;;623;XRF;;;145;XRF;;;;;;;;;;;;;;;;;1146;XRF;;;94;ICPMS;;;210;ICPMS;;;;;;;;;;;;;;;;;;;;;;;;;;;;;;;;;;;;;;;;;;;;;;;;;;;;;;;;;;;;;;;;;;;;;;;;;;;;;;;;;;;;;;;;;;;;;;;;;;;;;;;;;;;;;;;;;;;;;;;;;;;;;;;;;;;;;;;;;;;;;;;;;;
1991;[9979] ARMIENTI P. (1991);samp. MB  61;;ANTARCTICA / WEST ANTARCTIC RIFT SYSTEM / ROSS SEA RIFT;RANDOM HILLS, VICTORIA LAND, MCMURDO VOLCANIC GROUP;-74.5;165;-74.5;165;;;OUTCROP;;;SUBAERIAL;VOLCANIC ROCK;BENMOREITE;;;;;NEOGENE;;;;;;;MINERAL / COMPONENT (INCL. GROUNDMASS);GROUNDMASS;;;;PRIMARY;;;;;;;;;;;;;;;;;;;;;;;;;;;;;;;;;;;;;;;;;;;;;;;;;;;;;;;;;;;;;;;;;;;;;;;;;;;;;;;;;;;;;;;;;;;;;;;;;;;;;;;;;;;;;;;;;;;;;;;;;;;;;;;;;;;;;;;;;;;;;;;;;;;;;;;;;;;;;;;;;;;;;;;;;;;;;;;;;;;;;;;;;;;;;;;;;;;;;;;;;;;;;;;;;;;;;;;;;;;;;;;;;;;;;;;;;;;;;;;;;;;;;;;;;;;;;;;;;;;;;;;;;;;;;;;;;;;;;;;;;;;;;;;;;;;;;;;12.5;K-AR;;;;;;;
2003;[9981] ARMIENTI P. (2003);samp. MP11;;ANTARCTICA / WEST ANTARCTIC RIFT SYSTEM / ROSS SEA RIFT;DANIELL PENINSULA, TRANSANTARCTIC MOUNTAINS, MCMURDO VOLCANIC GROUP;-72.7;169.6;-72.7;169.6;;;OUTCROP;;;SUBAERIAL;VOLCANIC ROCK;BENMOREITE;;;;;NEOGENE;;;;;;;WHOLE ROCK;;;;;;;;;;56.35;1.38;;;;17.74;;;;;;;;;6.03;;1.96;;4.52;2.01;0.24;;;;;;2.55;XRF;;;6.06;0.64;;;;;;;;;;;;0.52;;;;;;;;;;;;;;;;;;;;;;;;;4.6;INAA;;;;;;;;6;INAA;;;9;INAA;;;;;;;;;;;;;;;;;;;;;;;65;XRF;;;;;800;XRF;;;;;39;XRF;;;585;XRF;;;149;XRF;;;;;;;;;;;;;;;;;894;XRF;;;93.3;INAA;;;166;INAA;;;;59;INAA;;;;;10.9;INAA;;;3.3;INAA;;;;;;;1.3;INAA;;;;;;;;;;;;;3.3;INAA;;;0.51;9.4;9.5;;;;;;;;;;;;;;11.2;INAA;;;;;;;;;;;;;;;;;;;;;;;;;;;;;;;;;;;;;;;;;;;;;;;;;;;;;;;;;;;;;;;;;;;;;;;;;;;;;;;;;;;;;;;;;
2003;[9981] ARMIENTI P. (2003);samp. MP11;;ANTARCTICA / WEST ANTARCTIC RIFT SYSTEM / ROSS SEA RIFT;DANIELL PENINSULA, TRANSANTARCTIC MOUNTAINS, MCMURDO VOLCANIC GROUP;-72.7;169.6;-72.7;169.6;;;OUTCROP;;;SUBAERIAL;VOLCANIC ROCK;BENMOREITE;;;;;NEOGENE;;;;;;;MINERAL / COMPONENT (INCL. GROUNDMASS);HORNBLENDE;;;;PRIMARY;;;;;;;;;;;;;;;;;;;;;;;;;;;;;;;;;;;;;;;;;;;;;;;;;;;5.7;;;;;;;;;;;;;;;;1.2539E-07;MS_ID;;;;;;;;;;;;;;;;;;;;;;;;;;;;;;;;;;;;;;;;;;;;;;;;;;;;;;;;;;;;;;;;;;;;;;;;;;;;;;;;;;;;;;;;;;;;;;;;;;;;;;;;;;;;;;;;;;;;;;;;;;;;;;;;;;;;;;;;;;;;;;;;;;;;;;;;;;;;;;;;;;;;;;;;;;;;;;;;;;;;;;;;;;;;;;;;;;;;;;;;;;;;;;;;;;;;;;;;;;;;;;;;;;;5.6;K-AR;;;;;;;
2003;[9981] ARMIENTI P. (2003);samp. MP11;;ANTARCTICA / WEST ANTARCTIC RIFT SYSTEM / ROSS SEA RIFT;DANIELL PENINSULA, TRANSANTARCTIC MOUNTAINS, MCMURDO VOLCANIC GROUP;-72.7;169.6;-72.7;169.6;;;OUTCROP;;;SUBAERIAL;VOLCANIC ROCK;BENMOREITE;;;;;NEOGENE;;;;;;;MINERAL / COMPONENT (INCL. GROUNDMASS);CLINOPYROXENE;;GROUNDMASS;;PRIMARY;;;;;48;1.8;;;;5.2;;;;;;;;;;12.3;;;20.2;12;0.6;;;;;;;;;;;;;;;;;;;;;;;;;;;;;;;;;;;;;;;;;;;;;;;;;;;;;;;;;;;;;;;;;;;;;;;;;;;;;;;;;;;;;;;;;;;;;;;;;;;;;;;;;;;;;;;;;;;;;;;;;;;;;;;;;;;;;;;;;;;;;;;;;;;;;;;;;;;;;;;;;;;;;;;;;;;;;;;;;;;;;;;;;;;;;;;;;;;;;;;;;;;;;;;;;;;;;;;;;;;;;;;;;;;;;;;;;;;;;;;;;;;;;;;;35.4;;;21.5;;;;;;;;;;;;43.1;;;;;;;;;;;;;;;
2003;[9981] ARMIENTI P. (2003);samp. MP11;;ANTARCTICA / WEST ANTARCTIC RIFT SYSTEM / ROSS SEA RIFT;DANIELL PENINSULA, TRANSANTARCTIC MOUNTAINS, MCMURDO VOLCANIC GROUP;-72.7;169.6;-72.7;169.6;;;OUTCROP;;;SUBAERIAL;VOLCANIC ROCK;BENMOREITE;;;;;NEOGENE;;;;;;;MINERAL / COMPONENT (INCL. GROUNDMASS);CLINOPYROXENE;;GROUNDMASS;;PRIMARY;;;;;50.7;0.7;;;;2.3;;;;;;;;;;11.9;;;20;13.6;0.8;;;;;;;;;;;;;;;;;;;;;;;;;;;;;;;;;;;;;;;;;;;;;;;;;;;;;;;;;;;;;;;;;;;;;;;;;;;;;;;;;;;;;;;;;;;;;;;;;;;;;;;;;;;;;;;;;;;;;;;;;;;;;;;;;;;;;;;;;;;;;;;;;;;;;;;;;;;;;;;;;;;;;;;;;;;;;;;;;;;;;;;;;;;;;;;;;;;;;;;;;;;;;;;;;;;;;;;;;;;;;;;;;;;;;;;;;;;;;;;;;;;;;;;;38.7;;;20.3;;;;;;;;;;;;41;;;;;;;;;;;;;;;
2003;[9981] ARMIENTI P. (2003);samp. MP11;;ANTARCTICA / WEST ANTARCTIC RIFT SYSTEM / ROSS SEA RIFT;DANIELL PENINSULA, TRANSANTARCTIC MOUNTAINS, MCMURDO VOLCANIC GROUP;-72.7;169.6;-72.7;169.6;;;OUTCROP;;;SUBAERIAL;VOLCANIC ROCK;BENMOREITE;;;;;NEOGENE;;;;;;;MINERAL / COMPONENT (INCL. GROUNDMASS);PLAGIOCLASE;;PHENOCRYST;CORE;PRIMARY;;;;;56.8;;;;;27.1;;;;;;;;0.5;;;;;9.5;;;;;;;;0.4;EMP (EPMA);;;5.7;;;;;;;;;;;;;;;;;;;;;;;;;;;;;;;;;;;;;;;;;;;;;;;;;;;;;;;;;;;;;;;;;;;;;;;;;;;;;;;;;;;;;;;;;;;;;;;;;;;;;;;;;;;;;;;;;;;;;;;;;;;;;;;;;;;;;;;;;;;;;;;;;;;;;;;;;;;;;;;;;;;;;;;;;;;;;;;;;;;;;;;;;;;;;;;;;;;;;;;;;;;;;;;;;;;;;;;;;;;;;;;;;;;;;;;;;;50.8;46.6;;;;;;;;;;;;;2.6;;;;;;;;;;;;;;;;;;;;
2003;[9981] ARMIENTI P. (2003);samp. MP11;;ANTARCTICA / WEST ANTARCTIC RIFT SYSTEM / ROSS SEA RIFT;DANIELL PENINSULA, TRANSANTARCTIC MOUNTAINS, MCMURDO VOLCANIC GROUP;-72.7;169.6;-72.7;169.6;;;OUTCROP;;;SUBAERIAL;VOLCANIC ROCK;BENMOREITE;;;;;NEOGENE;;;;;;;MINERAL / COMPONENT (INCL. GROUNDMASS);PLAGIOCLASE;;PHENOCRYST;;PRIMARY;;;;;57.8;;;;;26.5;;;;;;;;0.5;;;;;8.1;;;;;;;;0.4;EMP (EPMA);;;6.6;;;;;;;;;;;;;;;;;;;;;;;;;;;;;;;;;;;;;;;;;;;;;;;;;;;;;;;;;;;;;;;;;;;;;;;;;;;;;;;;;;;;;;;;;;;;;;;;;;;;;;;;;;;;;;;;;;;;;;;;;;;;;;;;;;;;;;;;;;;;;;;;;;;;;;;;;;;;;;;;;;;;;;;;;;;;;;;;;;;;;;;;;;;;;;;;;;;;;;;;;;;;;;;;;;;;;;;;;;;;;;;;;;;;;;;;;;58;39.4;;;;;;;;;;;;;2.5;;;;;;;;;;;;;;;;;;;;
2003;[9981] ARMIENTI P. (2003);samp. MP11;;ANTARCTICA / WEST ANTARCTIC RIFT SYSTEM / ROSS SEA RIFT;DANIELL PENINSULA, TRANSANTARCTIC MOUNTAINS, MCMURDO VOLCANIC GROUP;-72.7;169.6;-72.7;169.6;;;OUTCROP;;;SUBAERIAL;VOLCANIC ROCK;BENMOREITE;;;;;NEOGENE;;;;;;;MINERAL / COMPONENT (INCL. GROUNDMASS);PLAGIOCLASE;;PHENOCRYST;RIM;PRIMARY;;;;;58.8;;;;;25.8;;;;;;;;0.5;;;;;7.4;;;;;;;;0.5;EMP (EPMA);;;7;;;;;;;;;;;;;;;;;;;;;;;;;;;;;;;;;;;;;;;;;;;;;;;;;;;;;;;;;;;;;;;;;;;;;;;;;;;;;;;;;;;;;;;;;;;;;;;;;;;;;;;;;;;;;;;;;;;;;;;;;;;;;;;;;;;;;;;;;;;;;;;;;;;;;;;;;;;;;;;;;;;;;;;;;;;;;;;;;;;;;;;;;;;;;;;;;;;;;;;;;;;;;;;;;;;;;;;;;;;;;;;;;;;;;;;;;;61;36;;;;;;;;;;;;;3;;;;;;;;;;;;;;;;;;;;
2003;[9981] ARMIENTI P. (2003);samp. MP11;;ANTARCTICA / WEST ANTARCTIC RIFT SYSTEM / ROSS SEA RIFT;DANIELL PENINSULA, TRANSANTARCTIC MOUNTAINS, MCMURDO VOLCANIC GROUP;-72.7;169.6;-72.7;169.6;;;OUTCROP;;;SUBAERIAL;VOLCANIC ROCK;BENMOREITE;;;;;NEOGENE;;;;;;;MINERAL / COMPONENT (INCL. GROUNDMASS);PLAGIOCLASE;;GROUNDMASS;;PRIMARY;;;;;60.9;;;;;23.8;;;;;;;;1;;;;;5.5;;;;;;;;1.3;EMP (EPMA);;;7.6;;;;;;;;;;;;;;;;;;;;;;;;;;;;;;;;;;;;;;;;;;;;;;;;;;;;;;;;;;;;;;;;;;;;;;;;;;;;;;;;;;;;;;;;;;;;;;;;;;;;;;;;;;;;;;;;;;;;;;;;;;;;;;;;;;;;;;;;;;;;;;;;;;;;;;;;;;;;;;;;;;;;;;;;;;;;;;;;;;;;;;;;;;;;;;;;;;;;;;;;;;;;;;;;;;;;;;;;;;;;;;;;;;;;;;;;;;66;26.6;;;;;;;;;;;;;7.4;;;;;;;;;;;;;;;;;;;;
2003;[9981] ARMIENTI P. (2003);samp. MP11;;ANTARCTICA / WEST ANTARCTIC RIFT SYSTEM / ROSS SEA RIFT;DANIELL PENINSULA, TRANSANTARCTIC MOUNTAINS, MCMURDO VOLCANIC GROUP;-72.7;169.6;-72.7;169.6;;;OUTCROP;;;SUBAERIAL;VOLCANIC ROCK;BENMOREITE;;;;;NEOGENE;;;;;;;MINERAL / COMPONENT (INCL. GROUNDMASS);SPINEL;;MICROPHENOCRYST;;PRIMARY;;;;;;1.3;;;;0.2;;;;;;;;;;97.1;;;;0.95;0.4;;;;;;;;;;;;;;;;;;;;;;;;;;;;;;;;;;;;;;;;;;;;;;;;;;;;;;;;;;;;;;;;;;;;;;;;;;;;;;;;;;;;;;;;;;;;;;;;;;;;;;;;;;;;;;;;;;;;;;;;;;;;;;;;;;;;;;;;;;;;;;;;;;;;;;;;;;;;;;;;;;;;;;;;;;;;;;;;;;;;;;;;;;;;;;;;;;;;;;;;;;;;;;;;;;;;;;;;;;;;;;;;;;;;;;;;;;;;;;;;;;;;;;;;;;;;;;;;;;;;;;;;;;;;;;;;;;;;;;
2003;[9981] ARMIENTI P. (2003);samp. MP11;;ANTARCTICA / WEST ANTARCTIC RIFT SYSTEM / ROSS SEA RIFT;DANIELL PENINSULA, TRANSANTARCTIC MOUNTAINS, MCMURDO VOLCANIC GROUP;-72.7;169.6;-72.7;169.6;;;OUTCROP;;;SUBAERIAL;VOLCANIC ROCK;BENMOREITE;;;;;NEOGENE;;;;;;;MINERAL / COMPONENT (INCL. GROUNDMASS);ILMENITE;;MICROCRYST;;PRIMARY;;;;;;32.8;;;;;;;;;;;;;;48;;;;4.6;3.5;;;;;;;;;;;;;;;;;;;;;;;;;;;;;;;;;;;;;;;;;;;;;;;;;;;;;;;;;;;;;;;;;;;;;;;;;;;;;;;;;;;;;;;;;;;;;;;;;;;;;;;;;;;;;;;;;;;;;;;;;;;;;;;;;;;;;;;;;;;;;;;;;;;;;;;;;;;;;;;;;;;;;;;;;;;;;;;;;;;;;;;;;;;;;;;;;;;;;;;;;;;;;;;;;;;;;;;;;;;;;;;;;;;;;;;;;;;;;;;;;;;;;;;;;;;;;;87;;;;;;;;;;;;;;;;;;;;;;;;
2003;[9981] ARMIENTI P. (2003);samp. MP11;;ANTARCTICA / WEST ANTARCTIC RIFT SYSTEM / ROSS SEA RIFT;DANIELL PENINSULA, TRANSANTARCTIC MOUNTAINS, MCMURDO VOLCANIC GROUP;-72.7;169.6;-72.7;169.6;;;OUTCROP;;;SUBAERIAL;VOLCANIC ROCK;BENMOREITE;;;;;NEOGENE;;;;;;;MINERAL / COMPONENT (INCL. GROUNDMASS);ANORTHOCLASE;;;;PRIMARY;;;;;64.8;;;;;21;;;;;;;;0.6;;;;;1.8;;;;;;;;3.6;EMP (EPMA);;;8.2;;;;;;;;;;;;;;;;;;;;;;;;;;;;;;;;;;;;;;;;;;;;;;;;;;;;;;;;;;;;;;;;;;;;;;;;;;;;;;;;;;;;;;;;;;;;;;;;;;;;;;;;;;;;;;;;;;;;;;;;;;;;;;;;;;;;;;;;;;;;;;;;;;;;;;;;;;;;;;;;;;;;;;;;;;;;;;;;;;;;;;;;;;;;;;;;;;;;;;;;;;;;;;;;;;;;;;;;;;;;;;;;;;;;;;;;;;71.1;8.4;;;;;;;;;;;;;20.5;;;;;;;;;;;;;;;;;;;;
1989;[9983] WRNER G. (1989);samp. EP02-070;;ANTARCTICA / WEST ANTARCTIC RIFT SYSTEM / ROSS SEA RIFT / MOUNT MELBOURNE;EDMONSON POINT, VICTORIA LAND, MCMURDO VOLCANIC GROUP;-74.4;165;-74.4;165;;;OUTCROP;;;SUBAERIAL;VOLCANIC ROCK;BENMOREITE;;;;;NEOGENE;;;;;;;WHOLE ROCK;;;;;;;;;;59.5;0.76;;;;16.24;;;;;;;;;1.26;;6.48;;3.02;0.6;0.21;;;;;;4.16;XRF;;;5.81;0.2;;;0.25;;;;;;;;;;;;;;;;;;;;;;;;;;;;;;;;;;7.2;INAA;;;;4;XRF;;;16;XRF;;;3;XRF;2.6;INAA;4;XRF;;;10;XRF;;;153;XRF;;;;;;;;;;;105;XRF;;;;;371;XRF;;;;;54;XRF;;;556;XRF;;;134;XRF;;;;;;;;;;;;;;;;;1306;XRF;;;85.7;INAA;;;164;INAA;;;;68;INAA;;;;;13.2;INAA;;;4.21;INAA;;;;;;;1.74;INAA;;;;;;;;;;;;;4.54;INAA;;;0.59;12.1;8.9;;;;;;;;;;;;;;15.3;INAA;;;3.6;INAA;;;0.5129;;;;;0.70445;;;;;;;;;;;;;;;;;;;;;;;;;;;;;;;;;;;;;;;;;;;;;;;;;;;;;;;;;;;;;;;;;;;;;;;;;;;;;
1989;[9983] WRNER G. (1989);samp. EP03-076;;ANTARCTICA / WEST ANTARCTIC RIFT SYSTEM / ROSS SEA RIFT / MOUNT MELBOURNE;EDMONSON POINT, VICTORIA LAND, MCMURDO VOLCANIC GROUP;-74.4;165;-74.4;165;;;OUTCROP;;;SUBAERIAL;VOLCANIC ROCK;BENMOREITE;;;;;NEOGENE;;;;;;;WHOLE ROCK;;;;;;;;;;58.7;0.93;;;;16.4;;;;;;;;;1.86;;6.48;;3.44;0.78;0.22;;;;;;3.98;XRF;;;5.65;0.25;;;0.39;;;;;;;;;;;;;;;;;;;;;;;;;;;;;;;;;;;;;;;3;XRF;;;16;XRF;;;2;XRF;;;4;XRF;;;16;XRF;;;152;XRF;;;;;;;;;;;96;XRF;;;;;414;XRF;;;;;49;XRF;;;521;XRF;;;124;XRF;;;;;;;;;;;;;;;;;1284;XRF;;;;;;;;;;;;;;;;;;;;;;;;;;;;;;;;;;;;;;;;;;;;;;;;;;;;;;;;;;;;;;;;;;;;;;;;;;;;;;;;;;;;;;;;;;;;;;;;;;;;;;;;;;;;;;;;;;;;;;;;;;;;;;;;;;;;;;;;;;;;;;;;;;;;;;;;;;
1989;[9983] WRNER G. (1989);samp. EP05-083;;ANTARCTICA / WEST ANTARCTIC RIFT SYSTEM / ROSS SEA RIFT / MOUNT MELBOURNE;EDMONSON POINT, VICTORIA LAND, MCMURDO VOLCANIC GROUP;-74.4;165;-74.4;165;;;OUTCROP;;;SUBAERIAL;VOLCANIC ROCK;BENMOREITE;;;;;NEOGENE;;;;;;;WHOLE ROCK;;;;;;;;;;58.1;0.95;;;;16.23;;;;;;;;;2.7;;5.45;;3.43;0.77;0.2;;;;;;3.83;XRF;;;5.45;0.2;;;0.21;;;;;;;;;;;;;;;;;;;;;;;;;;;;;;;;;;;;;;;6;XRF;;;15;XRF;;;23;XRF;;;2;XRF;;;14;XRF;;;149;XRF;;;;;;;;;;;97;XRF;;;;;440;XRF;;;;;43;XRF;;;517;XRF;;;125;XRF;;;;;;;;;;;;;;;;;1198;XRF;;;;;;;;;;;;;;;;;;;;;;;;;;;;;;;;;;;;;;;;;;;;;;;;;;;;;;;;;;;;;;;;;;;;;;;;;;;;;;;;;;;;;;;;;;;;;;;;;;;;;;;;;;;;;;;;;;;;;;;;;;;;;;;;;;;;;;;;;;;;;;;;;;;;;;;;;;
1989;[9983] WRNER G. (1989);samp. EP08-086;;ANTARCTICA / WEST ANTARCTIC RIFT SYSTEM / ROSS SEA RIFT / MOUNT MELBOURNE;EDMONSON POINT, VICTORIA LAND, MCMURDO VOLCANIC GROUP;-74.4;165;-74.4;165;;;OUTCROP;;;SUBAERIAL;VOLCANIC ROCK;BENMOREITE;;;;;NEOGENE;;;;;;;WHOLE ROCK;;;;;;;;;;59;0.92;;;;16.39;;;;;;;;;2.15;;6.07;;3.33;0.75;0.21;;;;;;4.06;XRF;;;5.6;0.22;;;0.18;;;;;;;;;;;;;;;;;;;;;;;;;;;;;;;;;;;;;;;2;XRF;;;15;XRF;;;6;XRF;;;5;XRF;;;12;XRF;;;152;XRF;;;;;;;;;;;94;XRF;;;;;393;XRF;;;;;49;XRF;;;525;XRF;;;126;XRF;;;;;;;;;;;;;;;;;1367;XRF;;;;;;;;;;;;;;;;;;;;;;;;;;;;;;;;;;;;;;;;;;;;;;;;;;;;;;;;;;;;;;;;;;;;;;;;;;;;;;;;;;;;;;;;;;;;;;;;;;;;;;;;;;;;;;;;;;;;;;;;;;;;;;;;;;;;;;;;;;;;;;;;;;;;;;;;;;
1989;[9983] WRNER G. (1989);samp. EP09-087;;ANTARCTICA / WEST ANTARCTIC RIFT SYSTEM / ROSS SEA RIFT / MOUNT MELBOURNE;EDMONSON POINT, VICTORIA LAND, MCMURDO VOLCANIC GROUP;-74.4;165;-74.4;165;;;OUTCROP;;;SUBAERIAL;VOLCANIC ROCK;BENMOREITE;;;;;NEOGENE;;;;;;;WHOLE ROCK;;;;;;;;;;60.1;0.8;;;;16.51;;;;;;;;;1.72;;5.86;;3.08;0.58;0.21;;;;;;4.18;XRF;;;5.68;0.18;;;0.2;;;;;;;;;;;;;;;;;;;;;;;;;;;;;;;;;;;;;;;2;XRF;;;13;XRF;;;3;XRF;;;6;XRF;;;11;XRF;;;148;XRF;;;;;;;;;;;101;XRF;;;;;381;XRF;;;;;50;XRF;;;557;XRF;;;135;XRF;;;;;;;;;;;;;;;;;1248;XRF;;;;;;;;;;;;;;;;;;;;;;;;;;;;;;;;;;;;;;;;;;;;;;;;;;;;;;;;;;;;;;;;;;;;;;;;;;;;;;;;;;;;;;;;;;;;;;;;;;;;;;;;;;;;;;;;;;;;;;;;;;;;;;;;;;;;;;;;;;;;;;;;;;;;;;;;;;
1989;[9983] WRNER G. (1989);samp. EP10-089;;ANTARCTICA / WEST ANTARCTIC RIFT SYSTEM / ROSS SEA RIFT / MOUNT MELBOURNE;EDMONSON POINT, VICTORIA LAND, MCMURDO VOLCANIC GROUP;-74.4;165;-74.4;165;;;OUTCROP;;;SUBAERIAL;VOLCANIC ROCK;BENMOREITE;;;;;NEOGENE;;;;;;;WHOLE ROCK;;;;;;;;;;58.4;1.01;;;;16.47;;;;;;;;;2.15;;6.24;;3.62;0.85;0.21;;;;;;3.82;XRF;;;5.62;0.23;;;0.11;;;;;;;;;;;;;;;;;;;;;;;;;;;;;;;;;;;;;;;9;XRF;;;37;XRF;;;5;XRF;;;15;XRF;;;11;XRF;;;154;XRF;;;;;;;;;;;98;XRF;;;;;456;XRF;;;;;47;XRF;;;517;XRF;;;125;XRF;;;;;;;;;;;;;;;;;1128;XRF;;;;;;;;;;;;;;;;;;;;;;;;;;;;;;;;;;;;;;;;;;;;;;;;;;;;;;;;;;;;;;;;;;;;;;;;;;;;;;;;;;;;;;;;;;;;;;;;;;;;;;;;;;;;;;;;;;;;;;;;;;;;;;;;;;;;;;;;;;;;;;;;;;;;;;;;;;
1989;[9983] WRNER G. (1989);samp. EP12-092;;ANTARCTICA / WEST ANTARCTIC RIFT SYSTEM / ROSS SEA RIFT / MOUNT MELBOURNE;EDMONSON POINT, VICTORIA LAND, MCMURDO VOLCANIC GROUP;-74.4;165;-74.4;165;;;OUTCROP;;;SUBAERIAL;VOLCANIC ROCK;BENMOREITE;;;;;NEOGENE;;;;;;;WHOLE ROCK;;;;;;;;;;58.1;1;;;;16.4;;;;;;;;;2;;6.6;;3.67;0.84;0.22;;;;;;3.79;XRF;;;5.63;0.28;;;0.2;;;;;;;;;;;;;;;;;;;;;;;;;;;;;;;;;;;;;;;3;XRF;;;14;XRF;;;3;XRF;;;7;XRF;;;12;XRF;;;151;XRF;;;;;;;;;;;92;XRF;;;;;447;XRF;;;;;50;XRF;;;508;XRF;;;124;XRF;;;;;;;;;;;;;;;;;1174;XRF;;;;;;;;;;;;;;;;;;;;;;;;;;;;;;;;;;;;;;;;;;;;;;;;;;;;;;;;;;;;;;;;;;;;;;;;;;;;;;;;;;;;;;;;;;;;;;;;;;;;;;;;;;;;;;;;;;;;;;;;;;;;;;;;;;;;;;;;;;;;;;;;;;;;;;;;;;
1989;[9983] WRNER G. (1989);samp. EP13-094;;ANTARCTICA / WEST ANTARCTIC RIFT SYSTEM / ROSS SEA RIFT / MOUNT MELBOURNE;EDMONSON POINT, VICTORIA LAND, MCMURDO VOLCANIC GROUP;-74.4;165;-74.4;165;;;OUTCROP;;;SUBAERIAL;VOLCANIC ROCK;BENMOREITE;;;;;NEOGENE;;;;;;;WHOLE ROCK;;;;;;;;;;56.8;0.97;;;;16.09;;;;;;;;;1.37;;7.22;;3.58;0.86;0.22;;;;;;3.75;XRF;;;5.46;0.29;;;0.2;;;;;;;;;;;;;;;;;;;;;;;;;;;;;;;;;;;;;;;15;XRF;;;12;XRF;;;3;XRF;;;2;XRF;;;12;XRF;;;157;XRF;;;;;;;;;;;96;XRF;;;;;441;XRF;;;;;52;XRF;;;512;XRF;;;125;XRF;;;;;;;;;;;;;;;;;1139;XRF;;;;;;;;;;;;;;;;;;;;;;;;;;;;;;;;;;;;;;;;;;;;;;;;;;;;;;;;;;;;;;;;;;;;;;;;;;;;;;;;;;;;;;;;;;;;;;;;;;;;;;;;;;;;;;;;;;;;;;;;;;;;;;;;;;;;;;;;;;;;;;;;;;;;;;;;;;