Year;CITATION;SAMPLE NAME;UNIQUE_ID;LOCATION;LOCATION COMMENT;LATITUDE (MIN.);LONGITUDE (MIN.);LATITUDE (MAX.);LONGITUDE (MAX.);ELEVATION (MIN.);ELEVATION (MAX.);SAMPLING TECHNIQUE;DRILLING DEPTH (MIN.);DRILLING DEPTH (MAX.);LAND/SEA (SAMPLING);ROCK TYPE;ROCK NAME;ROCK TEXTURE;SAMPLE COMMENT;AGE (MIN.);AGE (MAX.);GEOLOGICAL AGE;GEOLOGICAL AGE PREFIX;ERUPTION DAY;ERUPTION MONTH;ERUPTION YEAR;ALTERATION;ALTERATION TYPE;TYPE OF MATERIAL;MINERAL / COMPONENT;SPOT (MINERAL);CRYSTAL;RIM / CORE (MINERAL GRAINS);PRIMARY/SECONDARY;INCLUSION TYPE;MINERAL (INCLUSION);HOSTMINERAL (INCLUSION);HEATING;SIO2(WT%);TIO2(WT%);ZRO2(WT%);HFO2(WT%);THO2(WT%);AL2O3(WT%);CR2O3(WT%);LA2O3(WT%);CE2O3(WT%);ND2O3(WT%);SM2O3(WT%);V2O3(WT%);NB2O5(WT%);FE2O3T(WT%);FE2O3(WT%);FEOT(WT%);FEO(WT%);FET(WT%);CAO(WT%);MGO(WT%);MNO(WT%);BAO(WT%);SRO(WT%);NIO(WT%);ZNO(WT%);RB2O(WT%);K2O(WT%);;;;NA2O(WT%);P2O5(WT%);AS2O5(WT%);H2O(WT%);H2OP(WT%);H2OM(WT%);CO2(WT%);C(WT%);F(WT%);CL(WT%);OH(WT%);SO3(WT%);S(WT%);LOI(WT%);TI(WT%);CA(WT%);K(WT%);LI(PPM);BE(PPM);B(PPM);F(PPM);P(PPM);S(PPM);CL(PPM);AR40(AT/G);;;;AR40(CCMSTP/G);;;;AR40(MOL/G);;;;AR40(PPB);K(PPM);SC(PPM);;;;TI(PPM);V(PPM);;;;CR(PPM);;;;CO(PPM);;;;NI(PPM);;;;CU(PPM);;;;ZN(PPM);;;;GA(PPM);;;;GE(PPM);AS(PPM);AS(PPB);SE(PPM);RB(PPM);;;;;;SR(PPM);;;;;;Y(PPM);;;;ZR(PPM);;;;NB(PPM);;;;MO(PPM);AG(PPM);CD(PPM);IN(PPM);SN(PPM);SB(PPM): altern. values or methods;;;;TE(PPM);CS(PPM): altern. values or methods;;;;BA(PPM): altern. values or methods;;;;LA(PPM): altern. values or methods;;;;CE(PPM): altern. values or methods;;;;PR(PPM);ND(PPM): altern. values or methods;;;;;;SM(PPM): altern. values or methods;;;;EU(PPM): altern. values or methods;;;;GD(PPM): altern. values or methods;;;;TB(PPM): altern. values or methods;;;;DY(PPM): altern. values or methods;;;;HO(PPM);ER(PPM): altern. values or methods;;;;TM(PPM);YB(PPM): altern. values or methods;;;;LU(PPM);HF(PPM);TA(PPM);W(PPM);RE(PPM);AU(PPM);HG(PPM);HG(PPB);TL(PPM);PB(PPM): altern. values or methods;;;;BI(PPM);PO210_ACT(DPM/G);RA226_ACT(DPM/G);TH(PPM): altern. values or methods;;;;U(PPM): altern. values or methods;;;;ND143_ND144;ND143_ND144_INI;EPSILON_ND;EPSILON_ND_INI;SM147_ND144;SR87_SR86;SR87_SR86_INI;EPSILON_SR_INI;RB87_SR86;PB206_PB204: altern. values or methods;;;;PB206_PB204_INI;PB207_PB204: altern. values or methods;;;;PB207_PB204_INI;PB207_PB206;PB208_PB204: altern. values or methods;;;;PB208_PB204_INI;PB208_PB206;HF176_HF177;LU176_HF177;AR38_AR36;AR40_AR36;AR40_AR36_INI;PB206_U238;PB207_U235;RA226_TH230_ACT;PA231_U235_ACT;TH230_TH232_ACT;TH230_U238_ACT;TH232_PB204;U234_U238_ACT;U235_PB204;U238_PB204;U238_TH232_ACT;D7LI(VS LSVEC);D13C(VS PDB);D18O(PER MIL);D18O(VS SMOW);D18O(VS VSMOW);D34S(VS VCDT);ALBITE(MOL%);ANORTHITE(MOL%);CA OLIVINE(MOL%);CHROMITE(MOL%);ENSTATITE(MOL%);FAYALITE(MOL%);FORSTERITE(MOL%);FERROSILITE(MOL%);HEMATITE(MOL%);HERCYNITE(MOL%);ILMENITE(MOL%);MAGNESIOFERRITE(MOL%);MONTICELLITE(MOL%);MAGNETITE(MOL%);ORTHOCLASE(MOL%);PICROCHROMITE(MOL%);SPINEL(MOL%);TEPHROITE(MOL%);ULVOSPINEL(MOL%);WOLLASTONITE(MOL%);AGE(KA): altern. values or methods;;;;;;AGE(MA): altern. values or methods;;;;;;AGE_PB207_U235(MA);AGE_PB206_U238(MA);
2001;[11166] MOHAMED F. H. (2001);samp. 88;;EAST SAHARA SWELL - CRETACEOUS / EGYPT / NATASH VOLCANIC FIELD;;24.42;33.43;24.42;33.43;;;OUTCROP;;;SUBAERIAL;VOLCANIC ROCK;BENMOREITE;HOLOCRYSTALLINE MATRIX;;90000000;90000000;CRETACEOUS;UPPER;;;;FRESH;;WHOLE ROCK;;;;;;;;;;56.83;0.43;;;;16.69;;;;;;;;;;8.67;;;4.39;0.74;0.14;;;;;;4.06;XRF;;;5.42;0.17;;;;;;;;;;;;1.49;;;;;;;;;;;;;;;;;;;;;;;;;;;;;;;;;;1;XRF;;;;;;;1;XRF;;;;;;;;;;;;;;;;;;;67;XRF;;;;;328;XRF;;;;;61;ICPMS;;;657;ICPMS;;;121;ICPMS;;;;;;;;;;;;;;;;;807;XRF;;;76.6;ICPMS;;;154;ICPMS;;;19;73.4;ICPMS;;;;;15.1;ICPMS;;;3.93;ICPMS;;;14.4;ICPMS;;;2.14;ICPMS;;;12.1;ICPMS;;;2.25;6.24;ICPMS;;;0.88;5.61;ICPMS;;;0.89;16.8;7.58;;;;;;;;;;;;;;9.59;ICPMS;;;2.83;ICPMS;;;;;;;;;;;;;;;;;;;;;;;;;;;;;;;;;;;;;;;;;;;;;;;;;;;;;;;;;;;;;;;;;;;;;;;;;;;;;;;;;;;;;
2001;[11166] MOHAMED F. H. (2001);samp. 96;;EAST SAHARA SWELL - CRETACEOUS / EGYPT / NATASH VOLCANIC FIELD;;24.42;33.43;24.42;33.43;;;OUTCROP;;;SUBAERIAL;VOLCANIC ROCK;BENMOREITE;HOLOCRYSTALLINE MATRIX;;90000000;90000000;CRETACEOUS;UPPER;;;;FRESH;;WHOLE ROCK;;;;;;;;;;60.33;0.4;;;;15.33;;;;;;;;;;8.48;;;1.95;0.55;0.23;;;;;;4.31;XRF;;;6.01;0.09;;;;;;;;;;;;1.52;;;;;;;;;;;;;;;;;;;;;;;;;;;;;;;;;;1;XRF;;;;;;;1;XRF;;;;;;;;;;;;;;;;;;;75;XRF;;;;;223;XRF;;;;;79;XRF;;;1039;XRF;;;136;XRF;;;;;;;;;;;;;;;;;1148;XRF;;;;;;;;;;;;;;;;;;;;;;;;;;;;;;;;;;;;;;;;;;;;;;;;;;;;;;;;;;;;;;;;;;;;;;;;;;;;;;;;;;;;;;;;;;;;;;;;;;;;;;;;;;;;;;;;;;;;;;;;;;;;;;;;;;;;;;;;;;;;;;;;;;;;;;;;;;
2001;[11166] MOHAMED F. H. (2001);samp. 103;209318;EAST SAHARA SWELL - CRETACEOUS / EGYPT / NATASH VOLCANIC FIELD;;24.42;33.43;24.42;33.43;;;OUTCROP;;;SUBAERIAL;VOLCANIC ROCK;BENMOREITE;HOLOCRYSTALLINE MATRIX;;90000000;90000000;CRETACEOUS;UPPER;;;;FRESH;;WHOLE ROCK;;;;;;;;;;62.1;0.41;;;;15.73;;;;;;;;;;6.13;;;2.36;0.33;0.28;;;;;;4.18;XRF;;;6.2;0.09;;;;;;;;;;;;1.47;;;;;;;;;;;;;;;;;;;;;;;;;;;;;;;;;;1;XRF;;;;;;;1;XRF;;;;;;;;;;;;;;;;;;;74;XRF;;;;;214;XRF;;;;;82;ICPMS;;;1021;ICPMS;;;148;ICPMS;;;;;;;;;;;;;;;;;1037;XRF;;;96.9;ICPMS;;;196;ICPMS;;;24.7;95.2;ICPMS;;;;;18.8;ICPMS;;;4.87;ICPMS;;;18;ICPMS;;;2.64;ICPMS;;;14.8;ICPMS;;;2.84;8.07;ICPMS;;;1.17;7.81;ICPMS;;;1.28;22.8;8.78;;;;;;;;;;;;;;10.1;ICPMS;;;2.94;ICPMS;;;;;;;;;;;;;;;;;;;;;;;;;;;;;;;;;;;;;;;;;;;;;;;;;;;;;;;;;;;;;;;;;;;;;;;;;;;;;;;;;;;;;
2001;[11166] MOHAMED F. H. (2001);samp. 110;;EAST SAHARA SWELL - CRETACEOUS / EGYPT / NATASH VOLCANIC FIELD;;24.42;33.43;24.42;33.43;;;OUTCROP;;;SUBAERIAL;VOLCANIC ROCK;BENMOREITE;HOLOCRYSTALLINE MATRIX;;90000000;90000000;CRETACEOUS;UPPER;;;;FRESH;;WHOLE ROCK;;;;;;;;;;61;0.42;;;;15.88;;;;;;;;;;7.5;;;1.91;0.52;0.27;;;;;;4.03;XRF;;;6.4;0.09;;;;;;;;;;;;1.35;;;;;;;;;;;;;;;;;;;;;;;;;;;;;;;;;;1;XRF;;;;;;;1;XRF;;;;;;;;;;;;;;;;;;;71;XRF;;;;;237;XRF;;;;;78;XRF;;;1067;XRF;;;139;XRF;;;;;;;;;;;;;;;;;1071;XRF;;;;;;;;;;;;;;;;;;;;;;;;;;;;;;;;;;;;;;;;;;;;;;;;;;;;;;;;;;;;;;;;;;;;;;;;;;;;;;;;;;;;;;;;;;;;;;;;;;;;;;;;;;;;;;;;;;;;;;;;;;;;;;;;;;;;;;;;;;;;;;;;;;;;;;;;;;
2001;[11166] MOHAMED F. H. (2001);samp. BEN4;;EAST SAHARA SWELL - CRETACEOUS / EGYPT / NATASH VOLCANIC FIELD;;24.42;33.43;24.42;33.43;;;OUTCROP;;;SUBAERIAL;VOLCANIC ROCK;BENMOREITE;HOLOCRYSTALLINE MATRIX;;90000000;90000000;CRETACEOUS;UPPER;;;;FRESH;;MINERAL / COMPONENT (INCL. GROUNDMASS);PYROXENE;;;;PRIMARY;;;;;50.08;0.44;;;;2.71;0.02;;;;;;;;;19.41;;;20.99;6.28;0.63;;;;;;;;;;0.17;;;;;;;;;;;;;;;;;;;;;;;;;;;;;;;;;;;;;;;;;;;;;;;;;;;;;;;;;;;;;;;;;;;;;;;;;;;;;;;;;;;;;;;;;;;;;;;;;;;;;;;;;;;;;;;;;;;;;;;;;;;;;;;;;;;;;;;;;;;;;;;;;;;;;;;;;;;;;;;;;;;;;;;;;;;;;;;;;;;;;;;;;;;;;;;;;;;;;;;;;;;;;;;;;;;;;;;;;;;;;;;;;;;;;;;;;;;;;;;;;;;;;;;;;;;;;;;;;;;;;;;;;;;;
2001;[11166] MOHAMED F. H. (2001);samp. BEN6;;EAST SAHARA SWELL - CRETACEOUS / EGYPT / NATASH VOLCANIC FIELD;;24.42;33.43;24.42;33.43;;;OUTCROP;;;SUBAERIAL;VOLCANIC ROCK;BENMOREITE;HOLOCRYSTALLINE MATRIX;;90000000;90000000;CRETACEOUS;UPPER;;;;FRESH;;MINERAL / COMPONENT (INCL. GROUNDMASS);PYROXENE;;;;PRIMARY;;;;;49.3;0.44;;;;3.08;0;;;;;;;;;20.65;;;19.98;5.58;0.65;;;;;;;;;;0.2;;;;;;;;;;;;;;;;;;;;;;;;;;;;;;;;;;;;;;;;;;;;;;;;;;;;;;;;;;;;;;;;;;;;;;;;;;;;;;;;;;;;;;;;;;;;;;;;;;;;;;;;;;;;;;;;;;;;;;;;;;;;;;;;;;;;;;;;;;;;;;;;;;;;;;;;;;;;;;;;;;;;;;;;;;;;;;;;;;;;;;;;;;;;;;;;;;;;;;;;;;;;;;;;;;;;;;;;;;;;;;;;;;;;;;;;;;;;;;;;;;;;;;;;;;;;;;;;;;;;;;;;;;;;
2001;[11166] MOHAMED F. H. (2001);samp. BEN8;;EAST SAHARA SWELL - CRETACEOUS / EGYPT / NATASH VOLCANIC FIELD;;24.42;33.43;24.42;33.43;;;OUTCROP;;;SUBAERIAL;VOLCANIC ROCK;BENMOREITE;HOLOCRYSTALLINE MATRIX;;90000000;90000000;CRETACEOUS;UPPER;;;;FRESH;;MINERAL / COMPONENT (INCL. GROUNDMASS);PYROXENE;;;;PRIMARY;;;;;50;0;;;;1.62;0;;;;;;;;;19.98;;;20.98;6.02;0.68;;;;;;;;;;0.57;;;;;;;;;;;;;;;;;;;;;;;;;;;;;;;;;;;;;;;;;;;;;;;;;;;;;;;;;;;;;;;;;;;;;;;;;;;;;;;;;;;;;;;;;;;;;;;;;;;;;;;;;;;;;;;;;;;;;;;;;;;;;;;;;;;;;;;;;;;;;;;;;;;;;;;;;;;;;;;;;;;;;;;;;;;;;;;;;;;;;;;;;;;;;;;;;;;;;;;;;;;;;;;;;;;;;;;;;;;;;;;;;;;;;;;;;;;;;;;;;;;;;;;;;;;;;;;;;;;;;;;;;;;;
2001;[11166] MOHAMED F. H. (2001);samp. BEN15;;EAST SAHARA SWELL - CRETACEOUS / EGYPT / NATASH VOLCANIC FIELD;;24.42;33.43;24.42;33.43;;;OUTCROP;;;SUBAERIAL;VOLCANIC ROCK;BENMOREITE;HOLOCRYSTALLINE MATRIX;;90000000;90000000;CRETACEOUS;UPPER;;;;FRESH;;MINERAL / COMPONENT (INCL. GROUNDMASS);PYROXENE;;;;PRIMARY;;;;;50.4;0.53;;;;2.7;0;;;;;;;;;19.92;;;21.14;6.27;0.67;;;;;;;;;;0.67;;;;;;;;;;;;;;;;;;;;;;;;;;;;;;;;;;;;;;;;;;;;;;;;;;;;;;;;;;;;;;;;;;;;;;;;;;;;;;;;;;;;;;;;;;;;;;;;;;;;;;;;;;;;;;;;;;;;;;;;;;;;;;;;;;;;;;;;;;;;;;;;;;;;;;;;;;;;;;;;;;;;;;;;;;;;;;;;;;;;;;;;;;;;;;;;;;;;;;;;;;;;;;;;;;;;;;;;;;;;;;;;;;;;;;;;;;;;;;;;;;;;;;;;;;;;;;;;;;;;;;;;;;;;
2001;[11166] MOHAMED F. H. (2001);samp. BEN21;;EAST SAHARA SWELL - CRETACEOUS / EGYPT / NATASH VOLCANIC FIELD;;24.42;33.43;24.42;33.43;;;OUTCROP;;;SUBAERIAL;VOLCANIC ROCK;BENMOREITE;HOLOCRYSTALLINE MATRIX;;90000000;90000000;CRETACEOUS;UPPER;;;;FRESH;;MINERAL / COMPONENT (INCL. GROUNDMASS);PYROXENE;;;;PRIMARY;;;;;51.15;0.3;;;;1.81;0;;;;;;;;;19.61;;;21.14;6.43;0.7;;;;;;;;;;0.71;;;;;;;;;;;;;;;;;;;;;;;;;;;;;;;;;;;;;;;;;;;;;;;;;;;;;;;;;;;;;;;;;;;;;;;;;;;;;;;;;;;;;;;;;;;;;;;;;;;;;;;;;;;;;;;;;;;;;;;;;;;;;;;;;;;;;;;;;;;;;;;;;;;;;;;;;;;;;;;;;;;;;;;;;;;;;;;;;;;;;;;;;;;;;;;;;;;;;;;;;;;;;;;;;;;;;;;;;;;;;;;;;;;;;;;;;;;;;;;;;;;;;;;;;;;;;;;;;;;;;;;;;;;;
2001;[11166] MOHAMED F. H. (2001);samp. BEN22;;EAST SAHARA SWELL - CRETACEOUS / EGYPT / NATASH VOLCANIC FIELD;;24.42;33.43;24.42;33.43;;;OUTCROP;;;SUBAERIAL;VOLCANIC ROCK;BENMOREITE;HOLOCRYSTALLINE MATRIX;;90000000;90000000;CRETACEOUS;UPPER;;;;FRESH;;MINERAL / COMPONENT (INCL. GROUNDMASS);PYROXENE;;;;PRIMARY;;;;;51.34;0.22;;;;1.8;0;;;;;;;;;19.26;;;21.1;6.99;0.73;;;;;;;;;;0.27;;;;;;;;;;;;;;;;;;;;;;;;;;;;;;;;;;;;;;;;;;;;;;;;;;;;;;;;;;;;;;;;;;;;;;;;;;;;;;;;;;;;;;;;;;;;;;;;;;;;;;;;;;;;;;;;;;;;;;;;;;;;;;;;;;;;;;;;;;;;;;;;;;;;;;;;;;;;;;;;;;;;;;;;;;;;;;;;;;;;;;;;;;;;;;;;;;;;;;;;;;;;;;;;;;;;;;;;;;;;;;;;;;;;;;;;;;;;;;;;;;;;;;;;;;;;;;;;;;;;;;;;;;;;
2001;[11166] MOHAMED F. H. (2001);samp. BEN23;;EAST SAHARA SWELL - CRETACEOUS / EGYPT / NATASH VOLCANIC FIELD;;24.42;33.43;24.42;33.43;;;OUTCROP;;;SUBAERIAL;VOLCANIC ROCK;BENMOREITE;HOLOCRYSTALLINE MATRIX;;90000000;90000000;CRETACEOUS;UPPER;;;;FRESH;;MINERAL / COMPONENT (INCL. GROUNDMASS);PYROXENE;;;;PRIMARY;;;;;49.64;0.4;;;;2.72;0;;;;;;;;;20.37;;;21.23;5.7;0.6;;;;;;;;;;0;;;;;;;;;;;;;;;;;;;;;;;;;;;;;;;;;;;;;;;;;;;;;;;;;;;;;;;;;;;;;;;;;;;;;;;;;;;;;;;;;;;;;;;;;;;;;;;;;;;;;;;;;;;;;;;;;;;;;;;;;;;;;;;;;;;;;;;;;;;;;;;;;;;;;;;;;;;;;;;;;;;;;;;;;;;;;;;;;;;;;;;;;;;;;;;;;;;;;;;;;;;;;;;;;;;;;;;;;;;;;;;;;;;;;;;;;;;;;;;;;;;;;;;;;;;;;;;;;;;;;;;;;;;;
2001;[11166] MOHAMED F. H. (2001);samp. BEN-A1;;EAST SAHARA SWELL - CRETACEOUS / EGYPT / NATASH VOLCANIC FIELD;;24.42;33.43;24.42;33.43;;;OUTCROP;;;SUBAERIAL;VOLCANIC ROCK;BENMOREITE;HOLOCRYSTALLINE MATRIX;;90000000;90000000;CRETACEOUS;UPPER;;;;FRESH;;MINERAL / COMPONENT (INCL. GROUNDMASS);PLAGIOCLASE;;;;PRIMARY;;;;;62.1;;;;;23.24;;;;;;;;;;0.36;;;4.37;;;;;;;;1.26;EMP (EPMA);;;8.48;;;;;;;;;;;;;;;;;;;;;;;;;;;;;;;;;;;;;;;;;;;;;;;;;;;;;;;;;;;;;;;;;;;;;;;;;;;;;;;;;;;;;;;;;;;;;;;;;;;;;;;;;;;;;;;;;;;;;;;;;;;;;;;;;;;;;;;;;;;;;;;;;;;;;;;;;;;;;;;;;;;;;;;;;;;;;;;;;;;;;;;;;;;;;;;;;;;;;;;;;;;;;;;;;;;;;;;;;;;;;;;;;;;;;;;;;;72.3;20.6;;;;;;;;;;;;;7.1;;;;;;;;;;;;;;;;;;;;
2001;[11166] MOHAMED F. H. (2001);samp. BEN-A4;;EAST SAHARA SWELL - CRETACEOUS / EGYPT / NATASH VOLCANIC FIELD;;24.42;33.43;24.42;33.43;;;OUTCROP;;;SUBAERIAL;VOLCANIC ROCK;BENMOREITE;HOLOCRYSTALLINE MATRIX;;90000000;90000000;CRETACEOUS;UPPER;;;;FRESH;;MINERAL / COMPONENT (INCL. GROUNDMASS);PLAGIOCLASE;;;;PRIMARY;;;;;61.37;;;;;23.3;;;;;;;;;;0.35;;;4.88;;;;;;;;1.07;EMP (EPMA);;;7.98;;;;;;;;;;;;;;;;;;;;;;;;;;;;;;;;;;;;;;;;;;;;;;;;;;;;;;;;;;;;;;;;;;;;;;;;;;;;;;;;;;;;;;;;;;;;;;;;;;;;;;;;;;;;;;;;;;;;;;;;;;;;;;;;;;;;;;;;;;;;;;;;;;;;;;;;;;;;;;;;;;;;;;;;;;;;;;;;;;;;;;;;;;;;;;;;;;;;;;;;;;;;;;;;;;;;;;;;;;;;;;;;;;;;;;;;;;70.1;23.7;;;;;;;;;;;;;6.2;;;;;;;;;;;;;;;;;;;;
2001;[11166] MOHAMED F. H. (2001);samp. BEN-A5;;EAST SAHARA SWELL - CRETACEOUS / EGYPT / NATASH VOLCANIC FIELD;;24.42;33.43;24.42;33.43;;;OUTCROP;;;SUBAERIAL;VOLCANIC ROCK;BENMOREITE;HOLOCRYSTALLINE MATRIX;;90000000;90000000;CRETACEOUS;UPPER;;;;FRESH;;MINERAL / COMPONENT (INCL. GROUNDMASS);PLAGIOCLASE;;;;PRIMARY;;;;;62.86;;;;;22.53;;;;;;;;;;0.25;;;3.84;;;;;;;;1.6;EMP (EPMA);;;8.27;;;;;;;;;;;;;;;;;;;;;;;;;;;;;;;;;;;;;;;;;;;;;;;;;;;;;;;;;;;;;;;;;;;;;;;;;;;;;;;;;;;;;;;;;;;;;;;;;;;;;;;;;;;;;;;;;;;;;;;;;;;;;;;;;;;;;;;;;;;;;;;;;;;;;;;;;;;;;;;;;;;;;;;;;;;;;;;;;;;;;;;;;;;;;;;;;;;;;;;;;;;;;;;;;;;;;;;;;;;;;;;;;;;;;;;;;;72.3;18.5;;;;;;;;;;;;;9.2;;;;;;;;;;;;;;;;;;;;
2001;[11166] MOHAMED F. H. (2001);samp. BEN-A7;;EAST SAHARA SWELL - CRETACEOUS / EGYPT / NATASH VOLCANIC FIELD;;24.42;33.43;24.42;33.43;;;OUTCROP;;;SUBAERIAL;VOLCANIC ROCK;BENMOREITE;HOLOCRYSTALLINE MATRIX;;90000000;90000000;CRETACEOUS;UPPER;;;;FRESH;;MINERAL / COMPONENT (INCL. GROUNDMASS);PLAGIOCLASE;;;;PRIMARY;;;;;62.68;;;;;22.8;;;;;;;;;;0.36;;;3.91;;;;;;;;0.86;EMP (EPMA);;;8.56;;;;;;;;;;;;;;;;;;;;;;;;;;;;;;;;;;;;;;;;;;;;;;;;;;;;;;;;;;;;;;;;;;;;;;;;;;;;;;;;;;;;;;;;;;;;;;;;;;;;;;;;;;;;;;;;;;;;;;;;;;;;;;;;;;;;;;;;;;;;;;;;;;;;;;;;;;;;;;;;;;;;;;;;;;;;;;;;;;;;;;;;;;;;;;;;;;;;;;;;;;;;;;;;;;;;;;;;;;;;;;;;;;;;;;;;;;75.8;19.1;;;;;;;;;;;;;5;;;;;;;;;;;;;;;;;;;;
2001;[11166] MOHAMED F. H. (2001);samp. BEN9;;EAST SAHARA SWELL - CRETACEOUS / EGYPT / NATASH VOLCANIC FIELD;;24.42;33.43;24.42;33.43;;;OUTCROP;;;SUBAERIAL;VOLCANIC ROCK;BENMOREITE;HOLOCRYSTALLINE MATRIX;;90000000;90000000;CRETACEOUS;UPPER;;;;FRESH;;MINERAL / COMPONENT (INCL. GROUNDMASS);(AL)KALIFELDSPAR;;;CORE;PRIMARY;;;;;66.3;;;;;21.32;;;;;;;;;;0.47;;;1.57;;;;;;;;2.97;EMP (EPMA);;;8.42;;;;;;;;;;;;;;;;;;;;;;;;;;;;;;;;;;;;;;;;;;;;;;;;;;;;;;;;;;;;;;;;;;;;;;;;;;;;;;;;;;;;;;;;;;;;;;;;;;;;;;;;;;;;;;;;;;;;;;;;;;;;;;;;;;;;;;;;;;;;;;;;;;;;;;;;;;;;;;;;;;;;;;;;;;;;;;;;;;;;;;;;;;;;;;;;;;;;;;;;;;;;;;;;;;;;;;;;;;;;;;;;;;;;;;;;;;74.9;7.7;;;;;;;;;;;;;17.4;;;;;;;;;;;;;;;;;;;;
2001;[11166] MOHAMED F. H. (2001);samp. BEN9;;EAST SAHARA SWELL - CRETACEOUS / EGYPT / NATASH VOLCANIC FIELD;;24.42;33.43;24.42;33.43;;;OUTCROP;;;SUBAERIAL;VOLCANIC ROCK;BENMOREITE;HOLOCRYSTALLINE MATRIX;;90000000;90000000;CRETACEOUS;UPPER;;;;FRESH;;MINERAL / COMPONENT (INCL. GROUNDMASS);(AL)KALIFELDSPAR;;;RIM;PRIMARY;;;;;66.99;;;;;20.69;;;;;;;;;;0.41;;;0.97;;;;;;;;2.26;EMP (EPMA);;;9.46;;;;;;;;;;;;;;;;;;;;;;;;;;;;;;;;;;;;;;;;;;;;;;;;;;;;;;;;;;;;;;;;;;;;;;;;;;;;;;;;;;;;;;;;;;;;;;;;;;;;;;;;;;;;;;;;;;;;;;;;;;;;;;;;;;;;;;;;;;;;;;;;;;;;;;;;;;;;;;;;;;;;;;;;;;;;;;;;;;;;;;;;;;;;;;;;;;;;;;;;;;;;;;;;;;;;;;;;;;;;;;;;;;;;;;;;;;82.4;4.7;;;;;;;;;;;;;12.9;;;;;;;;;;;;;;;;;;;;
2001;[11166] MOHAMED F. H. (2001);samp. BEN11;;EAST SAHARA SWELL - CRETACEOUS / EGYPT / NATASH VOLCANIC FIELD;;24.42;33.43;24.42;33.43;;;OUTCROP;;;SUBAERIAL;VOLCANIC ROCK;BENMOREITE;HOLOCRYSTALLINE MATRIX;;90000000;90000000;CRETACEOUS;UPPER;;;;FRESH;;MINERAL / COMPONENT (INCL. GROUNDMASS);FELDSPAR;;;CORE;PRIMARY;;;;;65.92;;;;;21.23;;;;;;;;;;0.41;;;1.28;;;;;;;;1.42;EMP (EPMA);;;9.27;;;;;;;;;;;;;;;;;;;;;;;;;;;;;;;;;;;;;;;;;;;;;;;;;;;;;;;;;;;;;;;;;;;;;;;;;;;;;;;;;;;;;;;;;;;;;;;;;;;;;;;;;;;;;;;;;;;;;;;;;;;;;;;;;;;;;;;;;;;;;;;;;;;;;;;;;;;;;;;;;;;;;;;;;;;;;;;;;;;;;;;;;;;;;;;;;;;;;;;;;;;;;;;;;;;;;;;;;;;;;;;;;;;;;;;;;;85;6.5;;;;;;;;;;;;;8.6;;;;;;;;;;;;;;;;;;;;
2001;[11166] MOHAMED F. H. (2001);samp. BEN12;;EAST SAHARA SWELL - CRETACEOUS / EGYPT / NATASH VOLCANIC FIELD;;24.42;33.43;24.42;33.43;;;OUTCROP;;;SUBAERIAL;VOLCANIC ROCK;BENMOREITE;HOLOCRYSTALLINE MATRIX;;90000000;90000000;CRETACEOUS;UPPER;;;;FRESH;;MINERAL / COMPONENT (INCL. GROUNDMASS);(AL)KALIFELDSPAR;;;RIM;PRIMARY;;;;;66.43;;;;;20.81;;;;;;;;;;0.26;;;1.12;;;;;;;;4.32;EMP (EPMA);;;8;;;;;;;;;;;;;;;;;;;;;;;;;;;;;;;;;;;;;;;;;;;;;;;;;;;;;;;;;;;;;;;;;;;;;;;;;;;;;;;;;;;;;;;;;;;;;;;;;;;;;;;;;;;;;;;;;;;;;;;;;;;;;;;;;;;;;;;;;;;;;;;;;;;;;;;;;;;;;;;;;;;;;;;;;;;;;;;;;;;;;;;;;;;;;;;;;;;;;;;;;;;;;;;;;;;;;;;;;;;;;;;;;;;;;;;;;;69.8;5.4;;;;;;;;;;;;;24.8;;;;;;;;;;;;;;;;;;;;
2001;[11166] MOHAMED F. H. (2001);samp. BEN24;;EAST SAHARA SWELL - CRETACEOUS / EGYPT / NATASH VOLCANIC FIELD;;24.42;33.43;24.42;33.43;;;OUTCROP;;;SUBAERIAL;VOLCANIC ROCK;BENMOREITE;HOLOCRYSTALLINE MATRIX;;90000000;90000000;CRETACEOUS;UPPER;;;;FRESH;;MINERAL / COMPONENT (INCL. GROUNDMASS);FELDSPAR;;;;PRIMARY;;;;;65.26;;;;;21.47;;;;;;;;;;0.43;;;2.43;;;;;;;;1.92;EMP (EPMA);;;8.66;;;;;;;;;;;;;;;;;;;;;;;;;;;;;;;;;;;;;;;;;;;;;;;;;;;;;;;;;;;;;;;;;;;;;;;;;;;;;;;;;;;;;;;;;;;;;;;;;;;;;;;;;;;;;;;;;;;;;;;;;;;;;;;;;;;;;;;;;;;;;;;;;;;;;;;;;;;;;;;;;;;;;;;;;;;;;;;;;;;;;;;;;;;;;;;;;;;;;;;;;;;;;;;;;;;;;;;;;;;;;;;;;;;;;;;;;;76.9;11.9;;;;;;;;;;;;;11.2;;;;;;;;;;;;;;;;;;;;
2001;[11166] MOHAMED F. H. (2001);samp. BEN25;;EAST SAHARA SWELL - CRETACEOUS / EGYPT / NATASH VOLCANIC FIELD;;24.42;33.43;24.42;33.43;;;OUTCROP;;;SUBAERIAL;VOLCANIC ROCK;BENMOREITE;HOLOCRYSTALLINE MATRIX;;90000000;90000000;CRETACEOUS;UPPER;;;;FRESH;;MINERAL / COMPONENT (INCL. GROUNDMASS);FELDSPAR;;;;PRIMARY;;;;;65.62;;;;;21.81;;;;;;;;;;0.46;;;1.72;;;;;;;;1.79;EMP (EPMA);;;9.01;;;;;;;;;;;;;;;;;;;;;;;;;;;;;;;;;;;;;;;;;;;;;;;;;;;;;;;;;;;;;;;;;;;;;;;;;;;;;;;;;;;;;;;;;;;;;;;;;;;;;;;;;;;;;;;;;;;;;;;;;;;;;;;;;;;;;;;;;;;;;;;;;;;;;;;;;;;;;;;;;;;;;;;;;;;;;;;;;;;;;;;;;;;;;;;;;;;;;;;;;;;;;;;;;;;;;;;;;;;;;;;;;;;;;;;;;;80.9;8.5;;;;;;;;;;;;;10.6;;;;;;;;;;;;;;;;;;;;
1984;[11197] MORRIS P. A. (1984);samp. 39891;;NEW ZEALAND / SOUTH ISLAND / CAMPBELL ISLAND;LION ROCK;-52.5;169.17;-52.5;169.17;;;OUTCROP;;;SUBAERIAL;VOLCANIC ROCK;BENMOREITE;;INTRUSION;;;MIOCENE;UPPER;;;;;;WHOLE ROCK;;;;;;;;;;59.28;1.28;;;;16.28;;;;;;;;;1.45;;7.26;;4.21;1.23;0.18;;;;;;3.2;XRF;;;5.17;0.5;;;;;;;;;;;;0.98;;;;;;;;;;;;;;;;;;;;;;;;;;;;;;30;XRF;;;;;;;;;;;;;;;;;;;;;;;;;;;;;;;70;XRF;;;;;292;XRF;;;;;56;XRF;;;689;XRF;;;101;XRF;;;;;;;;;;;;;;;;;727;XRF;;;;;;;;;;;;;;;;;;;;;;;;;;;;;;;;;;;;;;;;;;;;;;;;;;;;;;;;;;;;;;;;12;XRF;;;;;;;;;;;;;;;;;;;;;;;;;;;;;;;;;;;;;;;;;;;;;;;;;;;;;;;;;;;;;;;;;;;;;;;;;;;;;;;;;;;;;;;;;
1984;[11197] MORRIS P. A. (1984);samp. 36179;;NEW ZEALAND / SOUTH ISLAND / CAMPBELL ISLAND;LION ROCK;-52.5;169.17;-52.5;169.17;;;OUTCROP;;;SUBAERIAL;VOLCANIC ROCK;BENMOREITE;;INTRUSION;;;MIOCENE;UPPER;;;;;;WHOLE ROCK;;;;;;;;;;60.42;1.03;;;;16.25;;;;;;;;;1.27;;6.35;;3.4;1.79;0.17;;;;;;3.99;XRF;;;5.06;0.28;;;;;;;;;;;;0.7;;;;;;;;;;;;;;;;;;;;;;;;;;;;;;43;XRF;;;;;;;;;;;19;XRF;;;;;;;;;;;;;;;;;;;75;XRF;;;;;196;XRF;;;;;58;XRF;;;899;XRF;;;109;XRF;;;;;;;;;;;;;;;;;853;XRF;;;91;XRF;;;170;XRF;;;;;;;;;;;;;;;;;;;;;;;;;;;;;;;;;;;;;;;;;;;;;;;;;;;;;;;;7;XRF;;;;;;;;;;;;;;;;;;;;;;;;;;;;;;;;;;;;;;;;;;;;;;;;;;;;;;;;;;;;;;;;;;;;;;;;;;;;;;;;;;;;;;;;;
1984;[11197] MORRIS P. A. (1984);samp. 36179;;NEW ZEALAND / SOUTH ISLAND / CAMPBELL ISLAND;LION ROCK;-52.5;169.17;-52.5;169.17;;;OUTCROP;;;SUBAERIAL;VOLCANIC ROCK;BENMOREITE;;INTRUSION;;;MIOCENE;UPPER;;;;;;MINERAL / COMPONENT (INCL. GROUNDMASS);OLIVINE;;PHENOCRYST;;PRIMARY;;;;;34.5;;;;;;;;;;;;;;;40.05;;;0.22;24.91;0.89;;;;;;;;;;;;;;;;;;;;;;;;;;;;;;;;;;;;;;;;;;;;;;;;;;;;;;;;;;;;;;;;;;;;;;;;;;;;;;;;;;;;;;;;;;;;;;;;;;;;;;;;;;;;;;;;;;;;;;;;;;;;;;;;;;;;;;;;;;;;;;;;;;;;;;;;;;;;;;;;;;;;;;;;;;;;;;;;;;;;;;;;;;;;;;;;;;;;;;;;;;;;;;;;;;;;;;;;;;;;;;;;;;;;;;;;;;;;;;;;;;;;;;;;;;52.6;;;;;;;;;;;;;;;;;;;;;;;;;;;;
1984;[11197] MORRIS P. A. (1984);samp. 36179;;NEW ZEALAND / SOUTH ISLAND / CAMPBELL ISLAND;LION ROCK;-52.5;169.17;-52.5;169.17;;;OUTCROP;;;SUBAERIAL;VOLCANIC ROCK;BENMOREITE;;INTRUSION;;;MIOCENE;UPPER;;;;;;MINERAL / COMPONENT (INCL. GROUNDMASS);CLINOPYROXENE;;PHENOCRYST;;PRIMARY;;;;;48.46;1.4;;;;4.13;0.17;;;;;;;;4.65;;6.32;;19.3;14.14;0.25;;;;;;;;;;0.58;;;;;;;;;;;;;;;;;;;;;;;;;;;;;;;;;;;;;;;;;;;;;;;;;;;;;;;;;;;;;;;;;;;;;;;;;;;;;;;;;;;;;;;;;;;;;;;;;;;;;;;;;;;;;;;;;;;;;;;;;;;;;;;;;;;;;;;;;;;;;;;;;;;;;;;;;;;;;;;;;;;;;;;;;;;;;;;;;;;;;;;;;;;;;;;;;;;;;;;;;;;;;;;;;;;;;;;;;;;;;;;;;;;;;;;;;;;;;;;;;;;;;;;;;;;;;;;;;;;;;;;;;;;;