Year;CITATION;SAMPLE NAME;UNIQUE_ID;LOCATION;LOCATION COMMENT;LATITUDE (MIN.);LONGITUDE (MIN.);LATITUDE (MAX.);LONGITUDE (MAX.);ELEVATION (MIN.);ELEVATION (MAX.);SAMPLING TECHNIQUE;DRILLING DEPTH (MIN.);DRILLING DEPTH (MAX.);LAND/SEA (SAMPLING);ROCK TYPE;ROCK NAME;ROCK TEXTURE;SAMPLE COMMENT;AGE (MIN.);AGE (MAX.);GEOLOGICAL AGE;GEOLOGICAL AGE PREFIX;ERUPTION DAY;ERUPTION MONTH;ERUPTION YEAR;ALTERATION;ALTERATION TYPE;TYPE OF MATERIAL;MINERAL / COMPONENT;SPOT (MINERAL);CRYSTAL;RIM / CORE (MINERAL GRAINS);PRIMARY/SECONDARY;INCLUSION TYPE;MINERAL (INCLUSION);HOSTMINERAL (INCLUSION);HEATING;SIO2(WT%);TIO2(WT%);ZRO2(WT%);HFO2(WT%);THO2(WT%);AL2O3(WT%);CR2O3(WT%);LA2O3(WT%);CE2O3(WT%);ND2O3(WT%);SM2O3(WT%);V2O3(WT%);NB2O5(WT%);FE2O3T(WT%);FE2O3(WT%);FEOT(WT%);FEO(WT%);FET(WT%);CAO(WT%);MGO(WT%);MNO(WT%);BAO(WT%);SRO(WT%);NIO(WT%);ZNO(WT%);RB2O(WT%);K2O(WT%);;;;NA2O(WT%);P2O5(WT%);AS2O5(WT%);H2O(WT%);H2OP(WT%);H2OM(WT%);CO2(WT%);C(WT%);F(WT%);CL(WT%);OH(WT%);SO3(WT%);S(WT%);LOI(WT%);TI(WT%);CA(WT%);K(WT%);LI(PPM);BE(PPM);B(PPM);F(PPM);P(PPM);S(PPM);CL(PPM);AR40(AT/G);;;;AR40(CCMSTP/G);;;;AR40(MOL/G);;;;AR40(PPB);K(PPM);SC(PPM);;;;TI(PPM);V(PPM);;;;CR(PPM);;;;CO(PPM);;;;NI(PPM);;;;CU(PPM);;;;ZN(PPM);;;;GA(PPM);;;;GE(PPM);AS(PPM);AS(PPB);SE(PPM);RB(PPM);;;;;;SR(PPM);;;;;;Y(PPM);;;;ZR(PPM);;;;NB(PPM);;;;MO(PPM);AG(PPM);CD(PPM);IN(PPM);SN(PPM);SB(PPM): altern. values or methods;;;;TE(PPM);CS(PPM): altern. values or methods;;;;BA(PPM): altern. values or methods;;;;LA(PPM): altern. values or methods;;;;CE(PPM): altern. values or methods;;;;PR(PPM);ND(PPM): altern. values or methods;;;;;;SM(PPM): altern. values or methods;;;;EU(PPM): altern. values or methods;;;;GD(PPM): altern. values or methods;;;;TB(PPM): altern. values or methods;;;;DY(PPM): altern. values or methods;;;;HO(PPM);ER(PPM): altern. values or methods;;;;TM(PPM);YB(PPM): altern. values or methods;;;;LU(PPM);HF(PPM);TA(PPM);W(PPM);RE(PPM);AU(PPM);HG(PPM);HG(PPB);TL(PPM);PB(PPM): altern. values or methods;;;;BI(PPM);PO210_ACT(DPM/G);RA226_ACT(DPM/G);TH(PPM): altern. values or methods;;;;U(PPM): altern. values or methods;;;;ND143_ND144;ND143_ND144_INI;EPSILON_ND;EPSILON_ND_INI;SM147_ND144;SR87_SR86;SR87_SR86_INI;EPSILON_SR_INI;RB87_SR86;PB206_PB204: altern. values or methods;;;;PB206_PB204_INI;PB207_PB204: altern. values or methods;;;;PB207_PB204_INI;PB207_PB206;PB208_PB204: altern. values or methods;;;;PB208_PB204_INI;PB208_PB206;HF176_HF177;LU176_HF177;AR38_AR36;AR40_AR36;AR40_AR36_INI;PB206_U238;PB207_U235;RA226_TH230_ACT;PA231_U235_ACT;TH230_TH232_ACT;TH230_U238_ACT;TH232_PB204;U234_U238_ACT;U235_PB204;U238_PB204;U238_TH232_ACT;D7LI(VS LSVEC);D13C(VS PDB);D18O(PER MIL);D18O(VS SMOW);D18O(VS VSMOW);D34S(VS VCDT);ALBITE(MOL%);ANORTHITE(MOL%);CA OLIVINE(MOL%);CHROMITE(MOL%);ENSTATITE(MOL%);FAYALITE(MOL%);FORSTERITE(MOL%);FERROSILITE(MOL%);HEMATITE(MOL%);HERCYNITE(MOL%);ILMENITE(MOL%);MAGNESIOFERRITE(MOL%);MONTICELLITE(MOL%);MAGNETITE(MOL%);ORTHOCLASE(MOL%);PICROCHROMITE(MOL%);SPINEL(MOL%);TEPHROITE(MOL%);ULVOSPINEL(MOL%);WOLLASTONITE(MOL%);AGE(KA): altern. values or methods;;;;;;AGE(MA): altern. values or methods;;;;;;AGE_PB207_U235(MA);AGE_PB206_U238(MA);
1982;[10778] HASHAD A. H. (1982);samp. 90;;EAST SAHARA SWELL - CRETACEOUS / EGYPT / NATASH VOLCANIC FIELD;;24.42;33.43;24.42;33.43;;;OUTCROP;;;SUBAERIAL;VOLCANIC ROCK;BENMOREITE;;;;;CRETACEOUS;UPPER;;;;;;WHOLE ROCK;;;;;;;;;;54.21;0.1;;;;15.81;;;;;;;;;4.17;;6.07;;5.97;3.97;0.19;;;;;;2.56;NOT;;;6.62;0.1;;0.6;;;0.4;;;;;;;;;;;;;;;;;;;;;;;;;;;;;;;;;;;;;;;;;;;;;;;;;;;;;;;;;;;;;;;;;;;;;;;;;;;;;;;;;;;;;;;;;;;;;;;;;;;;;;;;;;;;;;;;;;;;;;;;;;;;;;;;;;;;;;;;;;;;;;;;;;;;;;;;;;;;;;;;;;;;;;;;;;;;;;;;;;;;;;;;;;;;;;;;;;;;;;;;;;;;;;;;;;;;;;;;;;;;;;;;;;;;;;;;;;;;;;;;;;;;;;;;;;;;;;;;;;;;;;
1982;[10778] HASHAD A. H. (1982);samp. 7;;EAST SAHARA SWELL - CRETACEOUS / EGYPT / NATASH VOLCANIC FIELD;;24.42;33.43;24.42;33.43;;;OUTCROP;;;SUBAERIAL;VOLCANIC ROCK;BENMOREITE;;;;;CRETACEOUS;UPPER;;;;;;WHOLE ROCK;;;;;;;;;;54.5;1.05;;;;17.67;;;;;;;;;3.37;;7.37;;4.84;2.11;0.18;;;;;;2.47;NOT;;;4.45;0.7;;1.6;;;0.6;;;;;;;;;;;;;;;;;;;;;;;;;;;;;;;;;;;;;;;;;;;;;;;;;;;;;;;;;;;;;;;;;;;;;;;;;;;;;;;;;;;;;;;;;;;;;;;;;;;;;;;;;;;;;;;;;;;;;;;;;;;;;;;;;;;;;;;;;;;;;;;;;;;;;;;;;;;;;;;;;;;;;;;;;;;;;;;;;;;;;;;;;;;;;;;;;;;;;;;;;;;;;;;;;;;;;;;;;;;;;;;;;;;;;;;;;;;;;;;;;;;;;;;;;;;;;;;;;;;;;;
1982;[10778] HASHAD A. H. (1982);samp. 55;;EAST SAHARA SWELL - CRETACEOUS / EGYPT / NATASH VOLCANIC FIELD;;24.42;33.43;24.42;33.43;;;OUTCROP;;;SUBAERIAL;VOLCANIC ROCK;BENMOREITE;;;;;CRETACEOUS;UPPER;;;;;;WHOLE ROCK;;;;;;;;;;55.56;1.27;;;;15.12;;;;;;;;;2.45;;6.02;;4.98;3.86;0.22;;;;;;2.24;NOT;;;6.64;0.5;;1.3;;;0.6;;;;;;;;;;;;;;;;;;;;;;;;;;;;;;;;;;;;;;;;;;;;;;;;;;;;;;;;;;;;;;;;;;;;;;;;;;;;;;;;;;;;;;;;;;;;;;;;;;;;;;;;;;;;;;;;;;;;;;;;;;;;;;;;;;;;;;;;;;;;;;;;;;;;;;;;;;;;;;;;;;;;;;;;;;;;;;;;;;;;;;;;;;;;;;;;;;;;;;;;;;;;;;;;;;;;;;;;;;;;;;;;;;;;;;;;;;;;;;;;;;;;;;;;;;;;;;;;;;;;;;
1984;[10830] CRAWFORD W. A. (1984);samp. WN6B;;EAST SAHARA SWELL - CRETACEOUS / EGYPT / NATASH VOLCANIC FIELD;;24.42;33.43;24.42;33.43;;;OUTCROP;;;SUBAERIAL;VOLCANIC ROCK;BENMOREITE;;;90000000;90000000;CRETACEOUS;UPPER;;;;;;WHOLE ROCK;;;;;;;;;;63.83;0.46;;;;14.92;;;;;;;;;5.42;;0.14;;2.65;0.17;0.14;;;;;;3.74;NOT;;;5.13;0.09;;;;;;;;;;;;3.73;;;;;;;;;;;;;;;;;;;;;;;;;;;;;;;;;;;;;;;;;;;;;;;;;;;;;;;;;;;;;;;;;;;;;;;;;;;;;;;;;;;;;;;;;;;;;;;;;;;;;;;;;;;;;;;;;;;;;;;;;;;;;;;;;;;;;;;;;;;;;;;;;;;;;;;;;;;;;;;;;;;;;;;;;;;;;;;;;;;;;;;;;;;;;;;;;;;;;;;;;;;;;;;;;;;;;;;;;;;;;;;;;;;;;;;;;;;;;;;;;;;;;;;;;;;;;;;
1984;[10830] CRAWFORD W. A. (1984);samp. WN5;;EAST SAHARA SWELL - CRETACEOUS / EGYPT / NATASH VOLCANIC FIELD;;24.42;33.43;24.42;33.43;;;OUTCROP;;;SUBAERIAL;VOLCANIC ROCK;BENMOREITE;;;90000000;90000000;CRETACEOUS;UPPER;;;;;;WHOLE ROCK;;;;;;;;;;56.72;0.66;;;;16.67;;;;;;;;;6.36;;2.35;;3.48;1.04;0.15;;;;;;3.52;NOT;;;6.86;0.2;;;;;;;;;;;;2.47;;;;;;;;;;;;;;;;;;;;;;;;;;;;;;;;;;;;;;;;;;;;;;;;;;;;;;;;;;;;;;;;;;;;;;;;;;;;;;;;;;;;;;;;;;;;;;;;;;;;;;;;;;;;;;;;;;;;;;;;;;;;;;;;;;;;;;;;;;;;;;;;;;;;;;;;;;;;;;;;;;;;;;;;;;;;;;;;;;;;;;;;;;;;;;;;;;;;;;;;;;;;;;;;;;;;;;;;;;;;;;;;;;;;;;;;;;;;;;;;;;;;;;;;;;;;;;;
1984;[10830] CRAWFORD W. A. (1984);samp. WN9;;EAST SAHARA SWELL - CRETACEOUS / EGYPT / NATASH VOLCANIC FIELD;;24.42;33.43;24.42;33.43;;;OUTCROP;;;SUBAERIAL;VOLCANIC ROCK;BENMOREITE;;;90000000;90000000;CRETACEOUS;UPPER;;;;;;WHOLE ROCK;;;;;;;;;;57.44;0.52;;;;16.6;;;;;;;;;6.98;;2.1;;3.07;0.64;0.17;;;;;;3.62;NOT;;;6.45;0.15;;;;;;;;;;;;2.21;;;;;;;;;;;;;;;;;;;;;;;;;;;;;;;;;;;;;;;;;;;;;;;;;;;;;;;;;;;;;;;;;;;;;;;;;;;;;;;;;;;;;;;;;;;;;;;;;;;;;;;;;;;;;;;;;;;;;;;;;;;;;;;;;;;;;;;;;;;;;;;;;;;;;;;;;;;;;;;;;;;;;;;;;;;;;;;;;;;;;;;;;;;;;;;;;;;;;;;;;;;;;;;;;;;;;;;;;;;;;;;;;;;;;;;;;;;;;;;;;;;;;;;;;;;;;;;
1984;[10830] CRAWFORD W. A. (1984);samp. ER138;;EAST SAHARA SWELL - CRETACEOUS / EGYPT / NATASH VOLCANIC FIELD;;24.42;33.43;24.42;33.43;;;OUTCROP;;;SUBAERIAL;VOLCANIC ROCK;BENMOREITE;;;90000000;90000000;CRETACEOUS;UPPER;;;;;;WHOLE ROCK;;;;;;;;;;55;1.6;;;;15.06;;;;;;;;;;11.17;;;4.18;1.31;;;;;;;3.34;NOT;;;6.47;;;;;;;;;;;;;;;;;;;;;;;;;;;;;;;;;;;;;;;;;;;;;;;;;;;;;;;;;;;;;;;;;;;;;;;;;;;;;;;;;;;;;;;;;;;;;;;;;;;;;;;;;;;;;;;;;;;;;;;;;;;;;;;;;;;;;;;;;;;;;;;;;;;;;;;;;;;;;;;;;;;;;;;;;;;;;;;;;;;;;;;;;;;;;;;;;;;;;;;;;;;;;;;;;;;;;;;;;;;;;;;;;;;;;;;;;;;;;;;;;;;;;;;;;;;;;;;;;;;;;;;;;;;;
1984;[10830] CRAWFORD W. A. (1984);samp. 56B1;;EAST SAHARA SWELL - CRETACEOUS / EGYPT / NATASH VOLCANIC FIELD;;24.42;33.43;24.42;33.43;;;OUTCROP;;;SUBAERIAL;VOLCANIC ROCK;BENMOREITE;;;90000000;90000000;CRETACEOUS;UPPER;;;;;;WHOLE ROCK;;;;;;;;;;57.1;0.41;;;;17.34;;;;;;;;;;9.71;;;2.04;0.67;;;;;;;3.26;NOT;;;6.69;;;;;;;;;;;;;;;;;;;;;;;;;;;;;;;;;;;;;;;;;;;;;;;;;;;;;;;;;;;;;;;;;;;;;;;;;;;;;;;;;;;;;;;;;;;;;;;;;;;;;;;;;;;;;;;;;;;;;;;;;;;;;;;;;;;;;;;;;;;;;;;;;;;;;;;;;;;;;;;;;;;;;;;;;;;;;;;;;;;;;;;;;;;;;;;;;;;;;;;;;;;;;;;;;;;;;;;;;;;;;;;;;;;;;;;;;;;;;;;;;;;;;;;;;;;;;;;;;;;;;;;;;;;;
1984;[10830] CRAWFORD W. A. (1984);samp. 22C2;;EAST SAHARA SWELL - CRETACEOUS / EGYPT / NATASH VOLCANIC FIELD;;24.42;33.43;24.42;33.43;;;OUTCROP;;;SUBAERIAL;VOLCANIC ROCK;BENMOREITE;;;90000000;90000000;CRETACEOUS;UPPER;;;;;;WHOLE ROCK;;;;;;;;;;54.73;0.54;;;;13.6;;;;;;;;;;10.39;;;2.55;0.77;;;;;;;4.35;NOT;;;5.57;;;;3.24;1.05;;;;;;;;;;;;;;;;;;;;;;;;;;;;;;;;;;;;;;;;;;;;;;;;;;;;;;;;;;;;;;;;;;;;;;;;;;;;;;;;;;;;;;;;;;;;;;;;;;;;;;;;;;;;;;;;;;;;;;;;;;;;;;;;;;;;;;;;;;;;;;;;;;;;;;;;;;;;;;;;;;;;;;;;;;;;;;;;;;;;;;;;;;;;;;;;;;;;;;;;;;;;;;;;;;;;;;;;;;;;;;;;;;;;;;;;;;;;;;;;;;;;;;;;;;;;;;;;;;;;;;;
1984;[10830] CRAWFORD W. A. (1984);samp. 10D2;;EAST SAHARA SWELL - CRETACEOUS / EGYPT / NATASH VOLCANIC FIELD;;24.42;33.43;24.42;33.43;;;OUTCROP;;;SUBAERIAL;VOLCANIC ROCK;BENMOREITE;;;90000000;90000000;CRETACEOUS;UPPER;;;;;;WHOLE ROCK;;;;;;;;;;60.56;0.42;;;;13.44;;;;;;;;;;8.47;;;2.97;0.87;;;;;;;2.39;NOT;;;5.95;;;;3.85;1.39;;;;;;;;;;;;;;;;;;;;;;;;;;;;;;;;;;;;;;;;;;;;;;;;;;;;;;;;;;;;;;;;;;;;;;;;;;;;;;;;;;;;;;;;;;;;;;;;;;;;;;;;;;;;;;;;;;;;;;;;;;;;;;;;;;;;;;;;;;;;;;;;;;;;;;;;;;;;;;;;;;;;;;;;;;;;;;;;;;;;;;;;;;;;;;;;;;;;;;;;;;;;;;;;;;;;;;;;;;;;;;;;;;;;;;;;;;;;;;;;;;;;;;;;;;;;;;;;;;;;;;;
1984;[10830] CRAWFORD W. A. (1984);samp. T3;;EAST SAHARA SWELL - CRETACEOUS / EGYPT / NATASH VOLCANIC FIELD;;24.42;33.43;24.42;33.43;;;OUTCROP;;;SUBAERIAL;VOLCANIC ROCK;BENMOREITE;;;90000000;90000000;CRETACEOUS;UPPER;;;;;;WHOLE ROCK;;;;;;;;;;59.57;0.38;;;;17.2;;;;;;;;;6.87;;1.33;;2.48;0.3;0.11;;;;;;3.65;NOT;;;7.2;0.1;;;;;;;;;;;;2.03;;;;;;;;;;;;;;;;;;;;;;;;;;;;;;;;;;;;;;;;;;;;;;;;;;;;;;;;;;;;;;;;;;;;;;;;;;;;;;;;;;;;;;;;;;;;;;;;;;;;;;;;;;;;;;;;;;;;;;;;;;;;;;;;;;;;;;;;;;;;;;;;;;;;;;;;;;;;;;;;;;;;;;;;;;;;;;;;;;;;;;;;;;;;;;;;;;;;;;;;;;;;;;;;;;;;;;;;;;;;;;;;;;;;;;;;;;;;;;;;;;;;;;;;;;;;;;;
1984;[10830] CRAWFORD W. A. (1984);samp. WN6C;;EAST SAHARA SWELL - CRETACEOUS / EGYPT / NATASH VOLCANIC FIELD;;24.42;33.43;24.42;33.43;;;OUTCROP;;;SUBAERIAL;VOLCANIC ROCK;BENMOREITE;;;90000000;90000000;CRETACEOUS;UPPER;;;;;;WHOLE ROCK;;;;;;;;;;64.43;0.43;;;;15.67;;;;;;;;;5.27;;0.07;;0.97;0.53;0.12;;;;;;2.9;NOT;;;7.38;0.08;;;;;;;;;;;;1.73;;;;;;;;;;;;;;;;;;;;;;;;;;;;;;;;;;;;;;;;;;;;;;;;;;;;;;;;;;;;;;;;;;;;;;;;;;;;;;;;;;;;;;;;;;;;;;;;;;;;;;;;;;;;;;;;;;;;;;;;;;;;;;;;;;;;;;;;;;;;;;;;;;;;;;;;;;;;;;;;;;;;;;;;;;;;;;;;;;;;;;;;;;;;;;;;;;;;;;;;;;;;;;;;;;;;;;;;;;;;;;;;;;;;;;;;;;;;;;;;;;;;;;;;;;;;;;;
2005;[10915] WOLFF J. A. (2005);samp. JM9325;;BASIN AND RANGE - GREAT BASIN / JEMEZ LINEAMENT (RATON HOTSPOT) / NEW MEXICO / JEMEZ MOUNTAINS VOLCANIC FIELD / PALIZA CANYON FORMATION;;36;-106;36;-106;;;OUTCROP;;;SUBAERIAL;VOLCANIC ROCK;BENMOREITE;;;6000000;13000000;MIOCENE;;;;;;;WHOLE ROCK;;;;;;;;;;56.61;1.19;;;;17.3;;;;;;;;;7.11;;;;6.49;3.74;0.11;;;;;;2.54;XRF;;;4.34;0.56;;;;;;;;;;;;;;;;;;;;;;;;;;;;;;;;;;;;;15.6;ICPMS;;;;;;;;36;XRF;;;;;;;49;XRF;;;31;XRF;;;69;XRF;;;20;XRF;;;;;;;27;XRF;27.6;ICPMS;;;1241;XRF;1180;ICPMS;;;27;XRF;26.37;ICPMS;290;XRF;;;35;XRF;35.39;ICPMS;;;;;;;;;;;0.59;ICPMS;;;1455;ICPMS;;;74.05;ICPMS;;;121.13;ICPMS;;;13.38;49.73;ICPMS;;;;;9.05;ICPMS;;;2.43;ICPMS;;;6.87;ICPMS;;;0.99;ICPMS;;;5.36;ICPMS;;;1.02;2.57;ICPMS;;;0.37;2.21;ICPMS;;;0.35;6.48;2.15;;;;;;;16.79;ICPMS;;;;;;9.19;ICPMS;;;3.25;ICPMS;;;0.5125;;;;;0.70477;;;;17.771;TIMS;;;;15.472;TIMS;;;;;37.541;TIMS;;;;;;;;;;;;;;;;;;;;;;;;;;;;;;;;;;;;;;;;;;;;;;;;;;;;;;;;;;;;;
2005;[10915] WOLFF J. A. (2005);samp. JM93262;;BASIN AND RANGE - GREAT BASIN / JEMEZ LINEAMENT (RATON HOTSPOT) / NEW MEXICO / JEMEZ MOUNTAINS VOLCANIC FIELD / PALIZA CANYON FORMATION;;36;-106;36;-106;;;OUTCROP;;;SUBAERIAL;VOLCANIC ROCK;BENMOREITE;;;6000000;13000000;MIOCENE;;;;;;;WHOLE ROCK;;;;;;;;;;55.92;1.43;;;;18.14;;;;;;;;;7.75;;;;6.83;2.82;0.12;;;;;;2.16;XRF;;;4.32;0.52;;;;;;;;;;;;;;;;;;;;;;;;;;;;;;;;;;;;;17.2;ICPMS;;;;;;;;29;XRF;;;;;;;21;XRF;;;36;XRF;;;73;XRF;;;20;XRF;;;;;;;26;XRF;27.5;ICPMS;;;1025;XRF;979;ICPMS;;;29;XRF;27.35;ICPMS;255;XRF;;;36;XRF;34.87;ICPMS;;;;;;;;;;;0.65;ICPMS;;;981;ICPMS;;;54.17;ICPMS;;;87.52;ICPMS;;;9.17;35.18;ICPMS;;;;;6.81;ICPMS;;;2.03;ICPMS;;;5.96;ICPMS;;;0.89;ICPMS;;;5.14;ICPMS;;;1.01;2.68;ICPMS;;;0.38;2.41;ICPMS;;;0.37;5.14;2.04;;;;;;;12.77;ICPMS;;;;;;7.87;ICPMS;;;2.91;ICPMS;;;0.51262;;;;;0.70407;;;;18.062;TIMS;;;;15.483;TIMS;;;;;37.894;TIMS;;;;;;;;;;;;;;;;;;;;;;;;;;;;;;;;;;;;;;;;;;;;;;;;;;;;;;;;;;;;;
2005;[10915] WOLFF J. A. (2005);samp. JM93125;;BASIN AND RANGE - GREAT BASIN / JEMEZ LINEAMENT (RATON HOTSPOT) / NEW MEXICO / JEMEZ MOUNTAINS VOLCANIC FIELD / PALIZA CANYON FORMATION;;36;-106;36;-106;;;OUTCROP;;;SUBAERIAL;VOLCANIC ROCK;BENMOREITE;;;6000000;13000000;MIOCENE;;;;;;;WHOLE ROCK;;;;;;;;;;56.95;1.34;;;;17.31;;;;;;;;;6.81;;;;6.79;3.31;0.1;;;;;;2.45;XRF;;;4.41;0.52;;;;;;;;;;;;;;;;;;;;;;;;;;;;;;;;;;;;;16;ICPMS;;;;;;;;55;XRF;;;;;;;32;XRF;;;25;XRF;;;49;XRF;;;19;XRF;;;;;;;40;XRF;40.5;ICPMS;;;945;XRF;896;ICPMS;;;25;XRF;25.25;ICPMS;274;XRF;;;40;XRF;40.38;ICPMS;;;;;;;;;;;0.71;ICPMS;;;1085;ICPMS;;;59.45;ICPMS;;;96.57;ICPMS;;;9.81;36.58;ICPMS;;;;;6.85;ICPMS;;;2.04;ICPMS;;;5.77;ICPMS;;;0.86;ICPMS;;;4.84;ICPMS;;;0.96;2.5;ICPMS;;;0.36;2.2;ICPMS;;;0.34;5.77;2.44;;;;;;;13;ICPMS;;;;;;8.82;ICPMS;;;3.48;ICPMS;;;0.51264;;;;;0.70431;;;;18.08;TIMS;;;;15.518;TIMS;;;;;37.985;TIMS;;;;;;;;;;;;;;;;;;;;;;;;;;;;;;;;;;;;;;;;;;;;;;;;;;;;;;;;;;;;;
2005;[10915] WOLFF J. A. (2005);samp. MR0076;;BASIN AND RANGE - GREAT BASIN / JEMEZ LINEAMENT (RATON HOTSPOT) / NEW MEXICO / JEMEZ MOUNTAINS VOLCANIC FIELD / TSCHICOMA ENCLAVES IN TSCHICOMA FORMATION;;36;-106;36;-106;;;OUTCROP;;;SUBAERIAL;VOLCANIC ROCK;BENMOREITE;;;2000000;7000000;NEOGENE;;;;;;;WHOLE ROCK;;;;;;;;;;56.98;1.49;;;;17.49;;;;;;;;;7.81;;;;5.74;2.96;0.15;;;;;;2.42;XRF;;;4.33;0.63;;;;;;;;;;;;;;;;;;;;;;;;;;;;;;;;;;;;;15;XRF;13.7;ICPMS;;106;XRF;;;6;XRF;;;;;;;5;XRF;;;27;XRF;;;89;XRF;;;18;XRF;;;;;;;48;XRF;47.7;ICPMS;;;641;XRF;673;ICPMS;;;32;XRF;32.1;ICPMS;222;XRF;;;36;XRF;37.23;ICPMS;;;;;;;;;;;1.39;ICPMS;;;1156;XRF;1252;ICPMS;48.69;ICPMS;;;84.36;ICPMS;;;9.25;35.5;ICPMS;;;;;7.46;ICPMS;;;2.21;ICPMS;;;6.59;ICPMS;;;1.05;ICPMS;;;6.17;ICPMS;;;1.2;3.16;ICPMS;;;0.44;2.75;ICPMS;;;0.43;4.93;2.26;;;;;;;12.17;ICPMS;;;;;;7.52;ICPMS;;;2.07;ICPMS;;;0.51266;;;;;0.70414;;;;17.604;TIMS;;;;15.477;TIMS;;;;;37.451;TIMS;;;;;;;;;;;;;;;;;;;;;;;;;;;;;;;;;;;;;;;;;;;;;;;;;;;;;;;;;;;;;
1981;[11029] IRVING A. J. (1981);samp. 745;;MID-AFRICAN RIFT SYSTEM / BENUE TROUGH / JOS PLATEAU;BOKKOS PLUG;9.3;9;9.3;9;;;OUTCROP;;;SUBAERIAL;VOLCANIC ROCK;BENMOREITE, NEPHELINE;;;;;;;;;;;;WHOLE ROCK;;;;;;;;;;53.51;0.83;;;;17.94;;;;;;;;;2.33;;3.65;;4.32;3.45;0.16;;;;;;4.28;AES;;;5.94;0.3;;;2.5;0.48;0.08;;;;;;;;;;;;;;;;;;;;;;;;;;;;;;;;6.1;INAA;;;;40;XRF;;;104;INAA;;;;;;;62;XRF;;;16;XRF;;;141;XRF;;;;;;;;;;;91;SSMS;;;;;715;SSMS;;;;;27;SSMS;;;832;SSMS;;;216;SSMS;;;;;;;1.2;;;;;;2.6;SSMS;;;815;XRF;;;90;INAA;;;169;INAA;;;;;;;;;;8.3;INAA;;;2.58;INAA;;;;;;;1.02;INAA;;;;;;;;;;;;;1.6;INAA;;;0.29;13.8;16;;;;;;;8.7;SSMS;;;;;;21.6;INAA;;;4.8;SSMS;;;;;;;;;;;;;;;;;;;;;;;;;;;;;;;;;;;;;;;;;;;;;;;;;;;;;;;;;;;;;;;;;;;;;;;;;;;;;;;;;;;;;
1981;[11029] IRVING A. J. (1981);samp. 744;;MID-AFRICAN RIFT SYSTEM / BENUE TROUGH / JOS PLATEAU;BOKKOS PLUG;9.3;9;9.3;9;;;OUTCROP;;;SUBAERIAL;VOLCANIC ROCK;BENMOREITE, NEPHELINE;;;;;;;;;;;;WHOLE ROCK;;;;;;;;;;55.19;0.58;;;;18.69;;;;;;;;;3.41;;1.75;;2.88;2.02;0.17;;;;;;4.33;AES;;;7.03;0.21;;;2.38;0.98;0.22;;;;;;;;;;;;;;;;;;;;;;;;;;;;;;;;3.1;INAA;;;;;;;;36;INAA;;;8;INAA;;;31;XRF;;;;;;;;;;;;;;;;;;;;;;;;;;;;;;;25;SSMS;;;;;;;;;;;;;;;4.3;;;;;;2.4;SSMS;;;870;XRF;;;108;INAA;;;173;INAA;;;;;;;;;;8.6;INAA;;;2.61;INAA;;;;;;;0.87;INAA;;;;;;;;;;;;;1.62;INAA;;;0.28;14.5;18;;;;;;;21.7;SSMS;;;;;;25.5;INAA;;;6.3;SSMS;;;;;;;;;;;;;;;;;;;;;;;;;;;;;;;;;;;;;;;;;;;;;;;;;;;;;;;;;;;;;;;;;;;;;;;;;;;;;;;;;;;;;
2001;[11166] MOHAMED F. H. (2001);samp. 27;;EAST SAHARA SWELL - CRETACEOUS / EGYPT / NATASH VOLCANIC FIELD;;24.42;33.43;24.42;33.43;;;OUTCROP;;;SUBAERIAL;VOLCANIC ROCK;BENMOREITE;HOLOCRYSTALLINE MATRIX;;90000000;90000000;CRETACEOUS;UPPER;;;;FRESH;;WHOLE ROCK;;;;;;;;;;58.45;0.45;;;;16.86;;;;;;;;;;8.55;;;2.66;0.81;0.22;;;;;;3.54;XRF;;;6.3;0.19;;;;;;;;;;;;1.14;;;;;;;;;;;;;;;;;;;;;;;;;;;;;;;;;;1;XRF;;;;;;;1;XRF;;;;;;;;;;;;;;;;;;;59;XRF;;;;;401;XRF;;;;;68;ICPMS;;;663;ICPMS;;;134;ICPMS;;;;;;;;;;;;;;;;;753;XRF;;;88.1;ICPMS;;;175;ICPMS;;;21.8;84.1;ICPMS;;;;;17.1;ICPMS;;;4.51;ICPMS;;;16.2;ICPMS;;;2.38;ICPMS;;;13.4;ICPMS;;;2.53;6.99;ICPMS;;;0.97;6.24;ICPMS;;;0.97;18.6;8.02;;;;;;;;;;;;;;10.5;ICPMS;;;3.12;ICPMS;;;;;;;;;;;;;;;;;;;;;;;;;;;;;;;;;;;;;;;;;;;;;;;;;;;;;;;;;;;;;;;;;;;;;;;;;;;;;;;;;;;;;
2001;[11166] MOHAMED F. H. (2001);samp. 30;;EAST SAHARA SWELL - CRETACEOUS / EGYPT / NATASH VOLCANIC FIELD;;24.42;33.43;24.42;33.43;;;OUTCROP;;;SUBAERIAL;VOLCANIC ROCK;BENMOREITE;HOLOCRYSTALLINE MATRIX;;90000000;90000000;CRETACEOUS;UPPER;;;;FRESH;;WHOLE ROCK;;;;;;;;;;58.28;0.47;;;;17.02;;;;;;;;;;8.66;;;2.76;0.43;0.22;;;;;;3.17;XRF;;;6.78;0.19;;;;;;;;;;;;1.38;;;;;;;;;;;;;;;;;;;;;;;;;;;;;;;;;;1;XRF;;;;;;;1;XRF;;;;;;;;;;;;;;;;;;;52;XRF;;;;;391;XRF;;;;;61;XRF;;;649;XRF;;;116;XRF;;;;;;;;;;;;;;;;;730;XRF;;;;;;;;;;;;;;;;;;;;;;;;;;;;;;;;;;;;;;;;;;;;;;;;;;;;;;;;;;;;;;;;;;;;;;;;;;;;;;;;;;;;;;;;;;;;;;;;;;;;;;;;;;;;;;;;;;;;;;;;;;;;;;;;;;;;;;;;;;;;;;;;;;;;;;;;;;
2001;[11166] MOHAMED F. H. (2001);samp. 32;;EAST SAHARA SWELL - CRETACEOUS / EGYPT / NATASH VOLCANIC FIELD;;24.42;33.43;24.42;33.43;;;OUTCROP;;;SUBAERIAL;VOLCANIC ROCK;BENMOREITE;HOLOCRYSTALLINE MATRIX;;90000000;90000000;CRETACEOUS;UPPER;;;;FRESH;;WHOLE ROCK;;;;;;;;;;58.1;0.46;;;;16.99;;;;;;;;;;8.77;;;2.97;0.44;0.23;;;;;;3.48;XRF;;;6.34;0.2;;;;;;;;;;;;1.28;;;;;;;;;;;;;;;;;;;;;;;;;;;;;;;;;;1;XRF;;;;;;;1;XRF;;;;;;;;;;;;;;;;;;;63;XRF;;;;;427;XRF;;;;;60;ICPMS;;;672;ICPMS;;;123;ICPMS;;;;;;;;;;;;;;;;;804;XRF;;;80.7;ICPMS;;;163;ICPMS;;;20.2;77.9;ICPMS;;;;;15.9;ICPMS;;;4.17;ICPMS;;;14.9;ICPMS;;;2.18;ICPMS;;;12.4;ICPMS;;;2.3;6.32;ICPMS;;;0.9;5.72;ICPMS;;;0.91;17.5;7.55;;;;;;;;;;;;;;9.66;ICPMS;;;2.74;ICPMS;;;;;;;;;;;;;;;;;;;;;;;;;;;;;;;;;;;;;;;;;;;;;;;;;;;;;;;;;;;;;;;;;;;;;;;;;;;;;;;;;;;;;
2001;[11166] MOHAMED F. H. (2001);samp. 39;;EAST SAHARA SWELL - CRETACEOUS / EGYPT / NATASH VOLCANIC FIELD;;24.42;33.43;24.42;33.43;;;OUTCROP;;;SUBAERIAL;VOLCANIC ROCK;BENMOREITE;HOLOCRYSTALLINE MATRIX;;90000000;90000000;CRETACEOUS;UPPER;;;;FRESH;;WHOLE ROCK;;;;;;;;;;57.52;0.51;;;;16.6;;;;;;;;;;9.32;;;2.55;1.12;0.22;;;;;;3.57;XRF;;;6.41;0.22;;;;;;;;;;;;1.41;;;;;;;;;;;;;;;;;;;;;;;;;;;;;;;;;;1;XRF;;;;;;;1;XRF;;;;;;;;;;;;;;;;;;;58;XRF;;;;;441;XRF;;;;;62;XRF;;;652;XRF;;;117;XRF;;;;;;;;;;;;;;;;;1099;XRF;;;;;;;;;;;;;;;;;;;;;;;;;;;;;;;;;;;;;;;;;;;;;;;;;;;;;;;;;;;;;;;;;;;;;;;;;;;;;;;;;;;;;;;;;;;;;;;;;;;;;;;;;;;;;;;;;;;;;;;;;;;;;;;;;;;;;;;;;;;;;;;;;;;;;;;;;;
2001;[11166] MOHAMED F. H. (2001);samp. 78;;EAST SAHARA SWELL - CRETACEOUS / EGYPT / NATASH VOLCANIC FIELD;;24.42;33.43;24.42;33.43;;;OUTCROP;;;SUBAERIAL;VOLCANIC ROCK;BENMOREITE;HOLOCRYSTALLINE MATRIX;;90000000;90000000;CRETACEOUS;UPPER;;;;FRESH;;WHOLE ROCK;;;;;;;;;;59.31;0.51;;;;16.08;;;;;;;;;;8.19;;;2.01;0.98;0.23;;;;;;3.52;XRF;;;6.68;0.19;;;;;;;;;;;;1.31;;;;;;;;;;;;;;;;;;;;;;;;;;;;;;;;;;1;XRF;;;;;;;1;XRF;;;;;;;;;;;;;;;;;;;62;XRF;;;;;450;XRF;;;;;57;XRF;;;664;XRF;;;118;XRF;;;;;;;;;;;;;;;;;896;XRF;;;;;;;;;;;;;;;;;;;;;;;;;;;;;;;;;;;;;;;;;;;;;;;;;;;;;;;;;;;;;;;;;;;;;;;;;;;;;;;;;;;;;;;;;;;;;;;;;;;;;;;;;;;;;;;;;;;;;;;;;;;;;;;;;;;;;;;;;;;;;;;;;;;;;;;;;;
2001;[11166] MOHAMED F. H. (2001);samp. 83;;EAST SAHARA SWELL - CRETACEOUS / EGYPT / NATASH VOLCANIC FIELD;;24.42;33.43;24.42;33.43;;;OUTCROP;;;SUBAERIAL;VOLCANIC ROCK;BENMOREITE;HOLOCRYSTALLINE MATRIX;;90000000;90000000;CRETACEOUS;UPPER;;;;FRESH;;WHOLE ROCK;;;;;;;;;;58.08;0.43;;;;16.81;;;;;;;;;;8.55;;;2.68;0.6;0.17;;;;;;3.36;XRF;;;7.07;0.17;;;;;;;;;;;;1.39;;;;;;;;;;;;;;;;;;;;;;;;;;;;;;;;;;1;XRF;;;;;;;2;XRF;;;;;;;;;;;;;;;;;;;64;XRF;;;;;471;XRF;;;;;62;XRF;;;678;XRF;;;112;XRF;;;;;;;;;;;;;;;;;753;XRF;;;;;;;;;;;;;;;;;;;;;;;;;;;;;;;;;;;;;;;;;;;;;;;;;;;;;;;;;;;;;;;;;;;;;;;;;;;;;;;;;;;;;;;;;;;;;;;;;;;;;;;;;;;;;;;;;;;;;;;;;;;;;;;;;;;;;;;;;;;;;;;;;;;;;;;;;;