Year;CITATION;SAMPLE NAME;UNIQUE_ID;LOCATION;LOCATION COMMENT;LATITUDE (MIN.);LONGITUDE (MIN.);LATITUDE (MAX.);LONGITUDE (MAX.);ELEVATION (MIN.);ELEVATION (MAX.);SAMPLING TECHNIQUE;DRILLING DEPTH (MIN.);DRILLING DEPTH (MAX.);LAND/SEA (SAMPLING);ROCK TYPE;ROCK NAME;ROCK TEXTURE;SAMPLE COMMENT;AGE (MIN.);AGE (MAX.);GEOLOGICAL AGE;GEOLOGICAL AGE PREFIX;ERUPTION DAY;ERUPTION MONTH;ERUPTION YEAR;ALTERATION;ALTERATION TYPE;TYPE OF MATERIAL;MINERAL / COMPONENT;SPOT (MINERAL);CRYSTAL;RIM / CORE (MINERAL GRAINS);PRIMARY/SECONDARY;INCLUSION TYPE;MINERAL (INCLUSION);HOSTMINERAL (INCLUSION);HEATING;SIO2(WT%);TIO2(WT%);ZRO2(WT%);HFO2(WT%);THO2(WT%);AL2O3(WT%);CR2O3(WT%);LA2O3(WT%);CE2O3(WT%);ND2O3(WT%);SM2O3(WT%);V2O3(WT%);NB2O5(WT%);FE2O3T(WT%);FE2O3(WT%);FEOT(WT%);FEO(WT%);FET(WT%);CAO(WT%);MGO(WT%);MNO(WT%);BAO(WT%);SRO(WT%);NIO(WT%);ZNO(WT%);RB2O(WT%);K2O(WT%);;;;NA2O(WT%);P2O5(WT%);AS2O5(WT%);H2O(WT%);H2OP(WT%);H2OM(WT%);CO2(WT%);C(WT%);F(WT%);CL(WT%);OH(WT%);SO3(WT%);S(WT%);LOI(WT%);TI(WT%);CA(WT%);K(WT%);LI(PPM);BE(PPM);B(PPM);F(PPM);P(PPM);S(PPM);CL(PPM);AR40(AT/G);;;;AR40(CCMSTP/G);;;;AR40(MOL/G);;;;AR40(PPB);K(PPM);SC(PPM);;;;TI(PPM);V(PPM);;;;CR(PPM);;;;CO(PPM);;;;NI(PPM);;;;CU(PPM);;;;ZN(PPM);;;;GA(PPM);;;;GE(PPM);AS(PPM);AS(PPB);SE(PPM);RB(PPM);;;;;;SR(PPM);;;;;;Y(PPM);;;;ZR(PPM);;;;NB(PPM);;;;MO(PPM);AG(PPM);CD(PPM);IN(PPM);SN(PPM);SB(PPM): altern. values or methods;;;;TE(PPM);CS(PPM): altern. values or methods;;;;BA(PPM): altern. values or methods;;;;LA(PPM): altern. values or methods;;;;CE(PPM): altern. values or methods;;;;PR(PPM);ND(PPM): altern. values or methods;;;;;;SM(PPM): altern. values or methods;;;;EU(PPM): altern. values or methods;;;;GD(PPM): altern. values or methods;;;;TB(PPM): altern. values or methods;;;;DY(PPM): altern. values or methods;;;;HO(PPM);ER(PPM): altern. values or methods;;;;TM(PPM);YB(PPM): altern. values or methods;;;;LU(PPM);HF(PPM);TA(PPM);W(PPM);RE(PPM);AU(PPM);HG(PPM);HG(PPB);TL(PPM);PB(PPM): altern. values or methods;;;;BI(PPM);PO210_ACT(DPM/G);RA226_ACT(DPM/G);TH(PPM): altern. values or methods;;;;U(PPM): altern. values or methods;;;;ND143_ND144;ND143_ND144_INI;EPSILON_ND;EPSILON_ND_INI;SM147_ND144;SR87_SR86;SR87_SR86_INI;EPSILON_SR_INI;RB87_SR86;PB206_PB204: altern. values or methods;;;;PB206_PB204_INI;PB207_PB204: altern. values or methods;;;;PB207_PB204_INI;PB207_PB206;PB208_PB204: altern. values or methods;;;;PB208_PB204_INI;PB208_PB206;HF176_HF177;LU176_HF177;AR38_AR36;AR40_AR36;AR40_AR36_INI;PB206_U238;PB207_U235;RA226_TH230_ACT;PA231_U235_ACT;TH230_TH232_ACT;TH230_U238_ACT;TH232_PB204;U234_U238_ACT;U235_PB204;U238_PB204;U238_TH232_ACT;D7LI(VS LSVEC);D13C(VS PDB);D18O(PER MIL);D18O(VS SMOW);D18O(VS VSMOW);D34S(VS VCDT);ALBITE(MOL%);ANORTHITE(MOL%);CA OLIVINE(MOL%);CHROMITE(MOL%);ENSTATITE(MOL%);FAYALITE(MOL%);FORSTERITE(MOL%);FERROSILITE(MOL%);HEMATITE(MOL%);HERCYNITE(MOL%);ILMENITE(MOL%);MAGNESIOFERRITE(MOL%);MONTICELLITE(MOL%);MAGNETITE(MOL%);ORTHOCLASE(MOL%);PICROCHROMITE(MOL%);SPINEL(MOL%);TEPHROITE(MOL%);ULVOSPINEL(MOL%);WOLLASTONITE(MOL%);AGE(KA): altern. values or methods;;;;;;AGE(MA): altern. values or methods;;;;;;AGE_PB207_U235(MA);AGE_PB206_U238(MA);
1998;[14370] D^ORAZIO M. (1998);samp. VBE-66;203116;ETNA/SICILY / VALLE DEL BOVE VOLCANIC SUCCESSION;ELLITICO VOLCANO;37.73;15;37.73;15;;;OUTCROP;;;SUBAERIAL;VOLCANIC ROCK;BENMOREITE;SUBAPHYRIC TRACHYTIC;PORTELLA GIUMENTA UNIT;14000;16000;PLEISTOCENE;;;;;;;MINERAL / COMPONENT (INCL. GROUNDMASS);TITANO-MAGNETITE;;MICROPHENOCRYST;RIM;PRIMARY;;;;;;13.4;;;;3.45;;;;;;;;;;75.39;;;;2.79;0.65;;;;;;;;;;;;;;;;;;;;;;;;;;;;;;;;;;;;;;;;;;;;;;;;;;;;;;;;;;;;;;;;;;;;;;;;;;;;;;;;;;;;;;;;;;;;;;;;;;;;;;;;;;;;;;;;;;;;;;;;;;;;;;;;;;;;;;;;;;;;;;;;;;;;;;;;;;;;;;;;;;;;;;;;;;;;;;;;;;;;;;;;;;;;;;;;;;;;;;;;;;;;;;;;;;;;;;;;;;;;;;;;;;;;;;;;;;;;;;;;;;;;;;;;;;;;;;;;;;;;;;;;;;;;;;;;;;;;;;
1998;[14370] D^ORAZIO M. (1998);samp. VBE-71;203122;ETNA/SICILY / VALLE DEL BOVE VOLCANIC SUCCESSION;ELLITICO VOLCANO;37.73;15;37.73;15;;;OUTCROP;;;SUBAERIAL;VOLCANIC ROCK;BENMOREITE;SUBAPHYRIC TRACHYTIC;PIANO DELLA CONCAZZE UNIT;14000;16000;PLEISTOCENE;;;;;;;MINERAL / COMPONENT (INCL. GROUNDMASS);PLAGIOCLASE;;;;PRIMARY;;;;;;;;;;;;;;;;;;;;;;;;;;;;;;;;;;;;;;;;;;;;;;;;;;;;;;;;;;;;;;;;;;;;;;;;;;;;;;;;;;;;;;;;;;;;;;;;;;;;;;;;;;;;;;3.4;ICPMS;;;;;2877;ICPMS;;;;;0.86;ICPMS;;;11.9;ICPMS;;;3.8;ICPMS;;;;;;;;;;;;;0.055;ICPMS;;;504;ICPMS;;;12.1;ICPMS;;;15.6;ICPMS;;;1.4;4.3;ICPMS;;;;;0.52;ICPMS;;;1.16;ICPMS;;;;;;;0.036;ICPMS;;;0.14;ICPMS;;;0.026;0.072;ICPMS;;;;0.065;ICPMS;;;0.01;0.23;0.17;;;;;;;2;ICPMS;;;;;;0.35;ICPMS;;;0.18;ICPMS;;;;;;;;;;;;;;;;;;;;;;;;;;;;;;;;;;;;;;;;;;;;;;;;;;;;;;;;;;;;;;;;;;;;;;;;;;;;;;;;;;;;;
1998;[14370] D^ORAZIO M. (1998);samp. VBE-66;203116;ETNA/SICILY / VALLE DEL BOVE VOLCANIC SUCCESSION;ELLITICO VOLCANO;37.73;15;37.73;15;;;OUTCROP;;;SUBAERIAL;VOLCANIC ROCK;BENMOREITE;SUBAPHYRIC TRACHYTIC;PORTELLA GIUMENTA UNIT;14000;16000;PLEISTOCENE;;;;;;;MINERAL / COMPONENT (INCL. GROUNDMASS);PLAGIOCLASE;;;;PRIMARY;;;;;;;;;;;;;;;;;;;;;;;;;;;;;;;;;;;;;;;;;;;;;;;;;;;;;;;;;;;;;;;;;;;;;;;;;;;;;;;;;;;;;;;;;;;;;;;;;;;;;;;;;;;;;;3.5;ICPMS;;;;;3338;ICPMS;;;;;0.75;ICPMS;;;7.1;ICPMS;;;2.23;ICPMS;;;;;;;;;;;;;0.094;ICPMS;;;950;ICPMS;;;20.7;ICPMS;;;23.9;ICPMS;;;1.95;5.4;ICPMS;;;;;0.57;ICPMS;;;1.75;ICPMS;;;;;;;0.03;ICPMS;;;0.15;ICPMS;;;0.027;0.053;ICPMS;;;;0.054;ICPMS;;;0.011;0.16;0.12;;;;;;;2.6;ICPMS;;;;;;0.18;ICPMS;;;0.069;ICPMS;;;;;;;;;;;;;;;;;;;;;;;;;;;;;;;;;;;;;;;;;;;;;;;;;;;;;;;;;;;;;;;;;;;;;;;;;;;;;;;;;;;;;
1998;[14370] D^ORAZIO M. (1998);samp. VBE-71;203122;ETNA/SICILY / VALLE DEL BOVE VOLCANIC SUCCESSION;ELLITICO VOLCANO;37.73;15;37.73;15;;;OUTCROP;;;SUBAERIAL;VOLCANIC ROCK;BENMOREITE;SUBAPHYRIC TRACHYTIC;PIANO DELLA CONCAZZE UNIT;14000;16000;PLEISTOCENE;;;;;;;MINERAL / COMPONENT (INCL. GROUNDMASS);CLINOPYROXENE;;;;PRIMARY;;;;;;;;;;;;;;;;;;;;;;;;;;;;;;;;;;;;;;;;;;;;;;;;;;;;;;;;;;;;;;;;;;;;;;;;;103;ICPMS;;;;297;ICPMS;;;3;ICPMS;;;36;ICPMS;;;12;ICPMS;;;;;;;;;;;;;;;;;;;2.97;ICPMS;;;;;209;ICPMS;;;;;39;ICPMS;;;134;ICPMS;;;7.6;ICPMS;;;;;;;;;;;;;0.053;ICPMS;;;81;ICPMS;;;18.2;ICPMS;;;57;ICPMS;;;9.8;49;ICPMS;;;;;12.4;ICPMS;;;3.4;ICPMS;;;;;;;1.76;ICPMS;;;8.5;ICPMS;;;1.52;3.3;ICPMS;;;;2.541;ICPMS;;;0.35;4.8;0.5;;;;;;;0.8;ICPMS;;;;;;0.59;ICPMS;;;0.22;ICPMS;;;;;;;;;;;;;;;;;;;;;;;;;;;;;;;;;;;;;;;;;;;;;;;;;;;;;;;;;;;;;;;;;;;;;;;;;;;;;;;;;;;;;
1998;[14370] D^ORAZIO M. (1998);samp. VBE-66;203116;ETNA/SICILY / VALLE DEL BOVE VOLCANIC SUCCESSION;ELLITICO VOLCANO;37.73;15;37.73;15;;;OUTCROP;;;SUBAERIAL;VOLCANIC ROCK;BENMOREITE;SUBAPHYRIC TRACHYTIC;PORTELLA GIUMENTA UNIT;14000;16000;PLEISTOCENE;;;;;;;MINERAL / COMPONENT (INCL. GROUNDMASS);KAERSUTITE;;;;PRIMARY;;;;;;;;;;;;;;;;;;;;;;;;;;;;;;;;;;;;;;;;;;;;;;;;;;;;;;;;;;;;;;;;;;;;;;;;;51;ICPMS;;;;306;ICPMS;;;1;ICPMS;;;28;ICPMS;;;5.5;ICPMS;;;;;;;;;;;;;;;;;;;4.9;ICPMS;;;;;780;ICPMS;;;;;82;ICPMS;;;2271;ICPMS;;;144;ICPMS;;;;;;;;;;;;;0.064;ICPMS;;;7.68;ICPMS;;;601;ICPMS;;;180;ICPMS;;;28.2;132;ICPMS;;;;;28.7;ICPMS;;;7.7;ICPMS;;;;;;;3.5;ICPMS;;;17.2;ICPMS;;;3.15;7.5;ICPMS;;;;5.4;ICPMS;;;0.78;7.3;6.8;;;;;;;1.2;ICPMS;;;;;;0.76;ICPMS;;;0.17;ICPMS;;;;;;;;;;;;;;;;;;;;;;;;;;;;;;;;;;;;;;;;;;;;;;;;;;;;;;;;;;;;;;;;;;;;;;;;;;;;;;;;;;;;;
1998;[14370] D^ORAZIO M. (1998);samp. VBE-71;203122;ETNA/SICILY / VALLE DEL BOVE VOLCANIC SUCCESSION;ELLITICO VOLCANO;37.73;15;37.73;15;;;OUTCROP;;;SUBAERIAL;VOLCANIC ROCK;BENMOREITE;SUBAPHYRIC TRACHYTIC;PIANO DELLA CONCAZZE UNIT;14000;16000;PLEISTOCENE;;;;;;;MINERAL / COMPONENT (INCL. GROUNDMASS);TITANO-MAGNETITE;;;;PRIMARY;;;;;;;;;;;;;;;;;;;;;;;;;;;;;;;;;;;;;;;;;;;;;;;;;;;;;;;;;;;;;;;;;;;;;;;;;15;ICPMS;;;;3168;ICPMS;;;8;ICPMS;;;198;ICPMS;;;62;ICPMS;;;;;;;;;;;;;;;;;;;0.073;ICPMS;;;;;45;ICPMS;;;;;6.7;ICPMS;;;105;ICPMS;;;46;ICPMS;;;;;;;;;;;;;0.059;ICPMS;;;10.8;ICPMS;;;16.4;ICPMS;;;32.5;ICPMS;;;4.1;17;ICPMS;;;;;2.98;ICPMS;;;0.71;ICPMS;;;;;;;0.33;ICPMS;;;1.46;ICPMS;;;0.21;0.6;ICPMS;;;;0.38;ICPMS;;;0.062;2.27;2.3;;;;;;;0.4;ICPMS;;;;;;0.88;ICPMS;;;0.75;ICPMS;;;;;;;;;;;;;;;;;;;;;;;;;;;;;;;;;;;;;;;;;;;;;;;;;;;;;;;;;;;;;;;;;;;;;;;;;;;;;;;;;;;;;
1998;[14370] D^ORAZIO M. (1998);samp. VBE-71;203122;ETNA/SICILY / VALLE DEL BOVE VOLCANIC SUCCESSION;ELLITICO VOLCANO;37.73;15;37.73;15;;;OUTCROP;;;SUBAERIAL;VOLCANIC ROCK;BENMOREITE;SUBAPHYRIC TRACHYTIC;PIANO DELLA CONCAZZE UNIT;14000;16000;PLEISTOCENE;;;;;;;MINERAL / COMPONENT (INCL. GROUNDMASS);GROUNDMASS;;;;PRIMARY;;;;;;;;;;;;;;;;;;;;;;;;;;;;;;;;;;;;;;;;;;;;;;;;;;;;;;;;;;;;;;;;;;;;;;;;;13;ICPMS;;;;182;ICPMS;;;0;ICPMS;;;19;ICPMS;;;3.1;ICPMS;;;;;;;;;;;;;;;;;;;51;ICPMS;;;;;1075;ICPMS;;;;;36;ICPMS;;;353;ICPMS;;;103;ICPMS;;;;;;;;;;;;;0.94;ICPMS;;;1252;ICPMS;;;119;ICPMS;;;218;ICPMS;;;24.3;86;ICPMS;;;;;14.8;ICPMS;;;3.9;ICPMS;;;;;;;1.51;ICPMS;;;7.6;ICPMS;;;1.32;3.15;ICPMS;;;;2.73;ICPMS;;;0.4;7.5;5.1;;;;;;;12.2;ICPMS;;;;;;19;ICPMS;;;5.8;ICPMS;;;;;;;;;;;;;;;;;;;;;;;;;;;;;;;;;;;;;;;;;;;;;;;;;;;;;;;;;;;;;;;;;;;;;;;;;;;;;;;;;;;;;
1998;[14370] D^ORAZIO M. (1998);samp. VBE-66;203116;ETNA/SICILY / VALLE DEL BOVE VOLCANIC SUCCESSION;ELLITICO VOLCANO;37.73;15;37.73;15;;;OUTCROP;;;SUBAERIAL;VOLCANIC ROCK;BENMOREITE;SUBAPHYRIC TRACHYTIC;PORTELLA GIUMENTA UNIT;14000;16000;PLEISTOCENE;;;;;;;MINERAL / COMPONENT (INCL. GROUNDMASS);GROUNDMASS;;;;PRIMARY;;;;;;;;;;;;;;;;;;;;;;;;;;;;;;;;;;;;;;;;;;;;;;;;;;;;;;;;;;;;;;;;;;;;;;;;;10;ICPMS;;;;122;ICPMS;;;3;ICPMS;;;10;ICPMS;;;4.6;ICPMS;;;;;;;;;;;;;;;;;;;74;ICPMS;;;;;1126;ICPMS;;;;;39;ICPMS;;;426;ICPMS;;;110;ICPMS;;;;;;;;;;;;;1.61;ICPMS;;;1469;ICPMS;;;124;ICPMS;;;225;ICPMS;;;23.5;82;ICPMS;;;;;13.4;ICPMS;;;3.28;ICPMS;;;;;;;1.35;ICPMS;;;7.1;ICPMS;;;1.3;3.26;ICPMS;;;;3.03;ICPMS;;;0.45;8.5;5.4;;;;;;;11.8;ICPMS;;;;;;23.2;ICPMS;;;6;ICPMS;;;;;;;;;;;;;;;;;;;;;;;;;;;;;;;;;;;;;;;;;;;;;;;;;;;;;;;;;;;;;;;;;;;;;;;;;;;;;;;;;;;;;
2010;[14457] ESTRADA S. (2010);samp. SE 108/99;;HIGH ARCTIC LARGE IGNEOUS PROVINCE / CANADIAN HIGH ARCTIC;CAPE BACK BASIN, JUDGE DALY PROMONTORY, NARES STRAIT REGION;80.9908;-66.9975;80.9908;-66.9975;;;OUTCROP;;;SUBAERIAL;VOLCANIC ROCK;BENMOREITE;;PEBBLE;;;PALEOCENE;;;;;;;WHOLE ROCK;;;;;;;;;;55.18;1.93;;;;16.6;;;;;;;;7.46;;;;;3.91;2.12;0.22;;;;;;3.39;XRF;;;6.3;0.47;;;;;;;;;;;;1.65;;;;;;;;;;;;;;;;;;;;;;;;;7;XRF;;;;85;XRF;;;14;XRF;;;11;XRF;;;11;XRF;;;46;XRF;;;120;XRF;;;27;XRF;;;;;;;57;XRF;90.65;TIMS_ID;;;1482;XRF;1555.9;TIMS;;;45;XRF;;;760;XRF;;;130;XRF;;;;;;;;;;;;;9;XRF;;;1395;XRF;;;161;ICPMS;;;323;ICPMS;;;37.8;141;ICPMS;125.77;TIMS;;;22.1;ICPMS;20.12;TIMS;6.35;ICPMS;;;13.3;ICPMS;;;1.74;ICPMS;;;7.89;ICPMS;;;1.47;4.07;ICPMS;;;0.544;2.99;ICPMS;;;0.392;19.2;9.75;;;;;;0.13;17;XRF;;;;;;15.7;XRF;;;3.98;XRF;;;0.51274;;;;0.0964;0.70369;;;0.1686;;;;;;;;;;;;;;;;;;;;;;;;;;;;;;;;;;;;;;;;;;;;;;;;;;;;;;;;;;;;;;;;;;;;;;;;;;
2010;[14457] ESTRADA S. (2010);samp. SE 112/99;;HIGH ARCTIC LARGE IGNEOUS PROVINCE / CANADIAN HIGH ARCTIC;CAPE BACK BASIN, JUDGE DALY PROMONTORY, NARES STRAIT REGION;80.9908;-66.9975;80.9908;-66.9975;;;OUTCROP;;;SUBAERIAL;VOLCANIC ROCK;BENMOREITE;;PEBBLE;;;PALEOCENE;;;;;;;WHOLE ROCK;;;;;;;;;;55.57;1.57;;;;17.3;;;;;;;;6.99;;;;;3.23;1.97;0.36;;;;;;3.46;XRF;;;6.3;0.43;;;;;;;;;;;;1.83;;;;;;;;;;;;;;;;;;;;;;;;;4;XRF;;;;47;XRF;;;16;XRF;;;7;XRF;;;13;XRF;;;43;XRF;;;115;XRF;;;22;XRF;;;;;;;60;XRF;;;;;1692;XRF;;;;;36;XRF;;;727;XRF;;;137;XRF;;;;;;;;;;;;;9;XRF;;;1971;XRF;;;152;XRF;;;223;XRF;;;;;;;;;;;;;;;;;;;;;;;;;;;;;;;;;;;;;;;;;12;13;;;;;;;8;XRF;;;;;;22;XRF;;;10;XRF;;;;;;;;;;;;;;;;;;;;;;;;;;;;;;;;;;;;;;;;;;;;;;;;;;;;;;;;;;;;;;;;;;;;;;;;;;;;;;;;;;;;;
2010;[14457] ESTRADA S. (2010);samp. SE 108/99;;HIGH ARCTIC LARGE IGNEOUS PROVINCE / CANADIAN HIGH ARCTIC;CAPE BACK BASIN, JUDGE DALY PROMONTORY, NARES STRAIT REGION;80.9908;-66.9975;80.9908;-66.9975;;;OUTCROP;;;SUBAERIAL;VOLCANIC ROCK;BENMOREITE;;PEBBLE;;;PALEOCENE;;;;;;;MINERAL / COMPONENT (INCL. GROUNDMASS);AMPHIBOLE;;;;PRIMARY;;;;;42.19;4.93;;;;9.69;0;;;;;;;;;12.44;;;11.64;12.51;0.34;;;;;;0.93;EMP (EPMA);;;3.06;;;;;;;;;;;;;;;;;;;;;;;;;;;;;;;;;;;;;;;;;;;;;;;;;;;;;;;;;;;;;;;;;;;;;;;;;;;;;;;;;;;;;;;;;;;;;;;;;;;;;;;;;;;;;;;;;;;;;;;;;;;;;;;;;;;;;;;;;;;;;;;;;;;;;;;;;;;;;;;;;;;;;;;;;;;;;;;;;;;;;;;;;;;;;;;;;;;;;;;;;;;;;;;;;;;;;;;;;;;;;;;;;;;;;;;;;;;;;;;;;;;;;;;;;;;;;;;;;;;;;;;;;;;;
2010;[14457] ESTRADA S. (2010);samp. SE 108/99;;HIGH ARCTIC LARGE IGNEOUS PROVINCE / CANADIAN HIGH ARCTIC;CAPE BACK BASIN, JUDGE DALY PROMONTORY, NARES STRAIT REGION;80.9908;-66.9975;80.9908;-66.9975;;;OUTCROP;;;SUBAERIAL;VOLCANIC ROCK;BENMOREITE;;PEBBLE;;;PALEOCENE;;;;;;;MINERAL / COMPONENT (INCL. GROUNDMASS);AMPHIBOLE;;;;PRIMARY;;;;;42.08;4.87;;;;9.23;0;;;;;;;;;13.1;;;11.47;12.28;0.34;;;;;;1.01;EMP (EPMA);;;3.04;;;;;;;;;;;;;;;;;;;;;;;;;;;;;;;;;;;;;;;;;;;;;;;;;;;;;;;;;;;;;;;;;;;;;;;;;;;;;;;;;;;;;;;;;;;;;;;;;;;;;;;;;;;;;;;;;;;;;;;;;;;;;;;;;;;;;;;;;;;;;;;;;;;;;;;;;;;;;;;;;;;;;;;;;;;;;;;;;;;;;;;;;;;;;;;;;;;;;;;;;;;;;;;;;;;;;;;;;;;;;;;;;;;;;;;;;;;;;;;;;;;;;;;;;;;;;;;;;;;;;;;;;;;;
2010;[14457] ESTRADA S. (2010);samp. SE 108/99;;HIGH ARCTIC LARGE IGNEOUS PROVINCE / CANADIAN HIGH ARCTIC;CAPE BACK BASIN, JUDGE DALY PROMONTORY, NARES STRAIT REGION;80.9908;-66.9975;80.9908;-66.9975;;;OUTCROP;;;SUBAERIAL;VOLCANIC ROCK;BENMOREITE;;PEBBLE;;;PALEOCENE;;;;;;;MINERAL / COMPONENT (INCL. GROUNDMASS);AMPHIBOLE;;;;PRIMARY;;;;;42.95;5.25;;;;9.01;0.01;;;;;;;;;11.75;;;11.51;13.21;0.26;;;;;;0.95;EMP (EPMA);;;3.14;;;;;;;;;;;;;;;;;;;;;;;;;;;;;;;;;;;;;;;;;;;;;;;;;;;;;;;;;;;;;;;;;;;;;;;;;;;;;;;;;;;;;;;;;;;;;;;;;;;;;;;;;;;;;;;;;;;;;;;;;;;;;;;;;;;;;;;;;;;;;;;;;;;;;;;;;;;;;;;;;;;;;;;;;;;;;;;;;;;;;;;;;;;;;;;;;;;;;;;;;;;;;;;;;;;;;;;;;;;;;;;;;;;;;;;;;;;;;;;;;;;;;;;;;;;;;;;;;;;;;;;;;;;;
2010;[14457] ESTRADA S. (2010);samp. SE 108/99;;HIGH ARCTIC LARGE IGNEOUS PROVINCE / CANADIAN HIGH ARCTIC;CAPE BACK BASIN, JUDGE DALY PROMONTORY, NARES STRAIT REGION;80.9908;-66.9975;80.9908;-66.9975;;;OUTCROP;;;SUBAERIAL;VOLCANIC ROCK;BENMOREITE;;PEBBLE;;;PALEOCENE;;;;;;;MINERAL / COMPONENT (INCL. GROUNDMASS);AMPHIBOLE;;;;PRIMARY;;;;;;;;;;;;;;;;;;;;;;;;;;;;;;;;;;;;;;;;;;;;;;;;;;;;;;;;;;;;;;;;;;;;;;;;;;;;;;;;;;;;;;;;;;;;;;;;;;;;;;;;;;;;;;;;;;;;;;;;;;;;;;;;;;;;;;;;;;;;;;;;;;;;;;;;;;;;;;;;;;;;;;;;;;;;;;;;;;;;;;;;;;;;;;;;;;;;;;;;;;;;;;;;;;;;;;;;;;;;;;;;;;;;;;;;;;;;;;;;;;;;;;;;;;;;;;;;;;;;;;;;;;;;;;;;;;;;;;;;;;;;;;;;;;;;;;;61.2;AR-AR;61.1;AR-AR;61.3;AR-AR;;;
2010;[14465] DAVIS A. S.(2010)  [GeoReM [5473] ];samp. T670R30;;CONTINENTAL MARGIN OFFSHORE CALIFORNIA SEAMOUNTS / RODRIGUEZ;;34.001;-121.118;34.001;-121.118;-1184;-1184;DREDGE;;;SUBAQUATIC;VOLCANIC ROCK;BENMOREITE;;;;;MIOCENE;;;;;;;WHOLE ROCK;;;;;;;;;;58.56;1.65;;;;20;;;;;;;;;;3.74;;;4.38;0.61;0.07;;;;;;4.54;XRF;;;5.76;0.69;;;;;;;;;;;;;;;;;;;;;;;;;;;;;;;;;;;;;10;XRF;10.6;ICPMS;;59;XRF;;;0;XRF;;;;;;;4;XRF;;;11;XRF;;;171;XRF;;;28;XRF;;;;;;;76;XRF;73.12;ICPMS;;;460;XRF;455.16;ICPMS;;;64;XRF;67.16;ICPMS;650;XRF;729.79;ICPMS;139.8;XRF;147.67;ICPMS;;;;;;;;;;;0.26;ICPMS;;;1288;XRF;1265.39;ICPMS;91.82;ICPMS;;;170.58;ICPMS;;;19.89;74.08;ICPMS;;;;;14.38;ICPMS;;;4.17;ICPMS;;;12.35;ICPMS;;;1.9;ICPMS;;;11.04;ICPMS;;;2.17;6.01;ICPMS;;;0.88;5.8;ICPMS;;;0.92;14.95;7.67;;;;;;;6.93;ICPMS;;;;;;10.31;ICPMS;;;1.9;ICPMS;;;0.512886;;;;;0.703287;;;;19.445;TIMS;;;;15.636;TIMS;;;;;39.054;TIMS;;;;;;;;;;;;;;;;;;;;;;;;;;;;;;;;;;;;;;;;;;;;;;;;;;;;;;;;;;;;;
2010;[14465] DAVIS A. S.(2010)  [GeoReM [5473] ];samp. T670R31;;CONTINENTAL MARGIN OFFSHORE CALIFORNIA SEAMOUNTS / RODRIGUEZ;;34.003;-121.117;34.003;-121.117;-1125;-1125;DREDGE;;;SUBAQUATIC;VOLCANIC ROCK;BENMOREITE;;;;;MIOCENE;;;;;;;WHOLE ROCK;;;;;;;;;;58.85;1.66;;;;19.9;;;;;;;;;;3.45;;;4.43;0.35;0.08;;;;;;4.98;XRF;;;5.6;0.7;;;;;;;;;;;;;;;;;;;;;;;;;;;;;;;;;;;;;9;XRF;8.91;ICPMS;;47;XRF;;;0;XRF;;;;;;;2;XRF;;;4;XRF;;;174;XRF;;;28;XRF;;;;;;;88;XRF;85.31;ICPMS;;;451;XRF;436.53;ICPMS;;;57;XRF;60.08;ICPMS;523;XRF;544.42;ICPMS;125.2;XRF;128.71;ICPMS;;;;;;;;;;;0.23;ICPMS;;;1295;XRF;1267.56;ICPMS;90.11;ICPMS;;;167.65;ICPMS;;;19.7;72.99;ICPMS;;;;;14.16;ICPMS;;;4.14;ICPMS;;;12.22;ICPMS;;;1.83;ICPMS;;;10.45;ICPMS;;;2.02;5.46;ICPMS;;;0.82;5.27;ICPMS;;;0.82;12.31;7.57;;;;;;;7.09;ICPMS;;;;;;10.29;ICPMS;;;2.8;ICPMS;;;;;;;;;;;;;;;;;;;;;;;;;;;;;;;;;;;;;;;;;;;;;;;;;;;;;;;;;;;;;;;;;;;;;;;;;;;;;;;;;;;;;
2010;[14465] DAVIS A. S.(2010)  [GeoReM [5473] ];samp. T670R32;;CONTINENTAL MARGIN OFFSHORE CALIFORNIA SEAMOUNTS / RODRIGUEZ;;34.004;-121.116;34.004;-121.116;-1093;-1093;DREDGE;;;SUBAQUATIC;VOLCANIC ROCK;BENMOREITE;;;;;MIOCENE;;;;;;;WHOLE ROCK;;;;;;;;;;56.12;1.55;;;;18.66;;;;;;;;;;8.15;;;4.19;0.75;0.07;;;;;;4.65;XRF;;;5.12;0.76;;;;;;;;;;;;;;;;;;;;;;;;;;;;;;;;;;;;;9;XRF;8.54;ICPMS;;106;XRF;;;8;XRF;;;;;;;4;XRF;;;5;XRF;;;112;XRF;;;26;XRF;;;;;;;77;XRF;77.89;ICPMS;;;399;XRF;409.34;ICPMS;;;53;XRF;55.75;ICPMS;591;XRF;593.86;ICPMS;113.9;XRF;123.81;ICPMS;;;;;;;;;;;0.58;ICPMS;;;1141;XRF;1158.42;ICPMS;85.31;ICPMS;;;166.08;ICPMS;;;19.66;73.76;ICPMS;;;;;14.13;ICPMS;;;4.14;ICPMS;;;12.33;ICPMS;;;1.91;ICPMS;;;11.02;ICPMS;;;2.2;5.83;ICPMS;;;0.84;5.12;ICPMS;;;0.79;13.12;7;;;;;;;6.39;ICPMS;;;;;;11.56;ICPMS;;;1.84;ICPMS;;;;;;;;;;;;;;;;;;;;;;;;;;;;;;;;;;;;;;;;;;;;;;;;;;;;;;;;;;;;;;;;;;;;;;;;;;;;;11.7;AR-AR;11.71;AR-AR;;;;;
2010;[14503] LUSTRINO M.(2010)  [GeoReM [5824] ];samp. 3MO 42;;ANATOLIA-IRAN BELT / TURKEY / EASTERN ANATOLIAN VOLCANIC BELT / KARACA(LI)DAG;;37;39;38;40.5;857;857;OUTCROP;;;SUBAERIAL;VOLCANIC ROCK;BENMOREITE;HOLOCRYSTALLINE, INTERGRANULAR TO SUBOPHITIC;EARLY STAGE;2600000;;CENOZOIC;;;;;;;WHOLE ROCK;;;;;;;;;;61.4501568908074;1.17608268133493;;;;17.7523346884071;;;;;;;;;;8.59538770924986;;;3.15573870755867;1.0254412541833;0.144872516398403;;;;;;3.87358934865897;EMP (EPMA);;;2.31138901382229;0.515007189579065;;;;;;;;;;;;2.86419516888149;;;;;;;;;;;;;;;;;;;;;;;;;;;;;;22;ICPMS;;;;;;;11;ICPMS;;;;;;;10;ICPMS;;;150;ICPMS;;;33;ICPMS;;;;;;;101;ICPMS;;;;;430;ICPMS;;;;;37;ICPMS;;;360;ICPMS;;;54;ICPMS;;;;;;;;;;;;;1.8;ICPMS;;;592;ICPMS;;;50.3;ICPMS;;;104;ICPMS;;;10.9;41.5;ICPMS;;;;;9.9;ICPMS;;;2.71;ICPMS;;;8.9;ICPMS;;;1.4;ICPMS;;;7.5;ICPMS;;;1.3;3.6;ICPMS;;;0.48;2.9;ICPMS;;;0.41;9.4;3.2;;;;;;;;;;;;;;10.3;ICPMS;;;2.8;ICPMS;;;0.51274;;;;;0.705114;;;;;;;;;;;;;;;;;;;;;;;;;;;;;;;;;;;;;;;;;;;;;;;;;;;;;;;;;;;;;;;;;;;;;;;;;;;;;
2010;[14503] LUSTRINO M.(2010)  [GeoReM [5824] ];samp. 3MO 42;;ANATOLIA-IRAN BELT / TURKEY / EASTERN ANATOLIAN VOLCANIC BELT / KARACA(LI)DAG;;37;39;38;40.5;857;857;OUTCROP;;;SUBAERIAL;VOLCANIC ROCK;BENMOREITE;HOLOCRYSTALLINE, INTERGRANULAR TO SUBOPHITIC;EARLY STAGE;2600000;;CENOZOIC;;;;;;;MINERAL / COMPONENT (INCL. GROUNDMASS);GROUNDMASS;;;;PRIMARY;;;;;;;;;;;;;;;;;;;;;;;;;;;;;;;;;;;;;;;;;;;;;;;;;;;2.97;;;;;;;;;;;;0.001378;MS_ID;;;;;;;;;;;;;;;;;;;;;;;;;;;;;;;;;;;;;;;;;;;;;;;;;;;;;;;;;;;;;;;;;;;;;;;;;;;;;;;;;;;;;;;;;;;;;;;;;;;;;;;;;;;;;;;;;;;;;;;;;;;;;;;;;;;;;;;;;;;;;;;;;;;;;;;;;;;;;;;;;;;;;;;;;;;;;;;;;;;;;;;;;;;;;;;;;;;;;;;;;;;;;;;;;;;;;;;;;;;;;;;;;;;;;;;6.68;K-AR;;;;;;;
2010;[14572] KAMGANG P. (2010);samp. BA75;;MID-AFRICAN RIFT SYSTEM / CAMEROON LINE (CONTINENTAL SECTION) / CENTRAL CAMEROON LINE / BAMENDA MOUNTAINS;;5.93;10.17;5.93;10.17;;;OUTCROP;;;SUBAERIAL;VOLCANIC ROCK;BENMOREITE;;;;;CENOZOIC;;;;;;;WHOLE ROCK;;;;;;;;;;56.52;0.65;;;;14.46;;;;;;;;9.83;;;;;2.78;0.22;0.28;;;;;;4.76;ICPAES;;;5.13;0.22;;;;;;;;;;;;4.64;;;;;;;;;;;;;;;;;;;;;;;;;12.8;ICPMS;;;;;;;;3.42;ICPMS;;;0.93;ICPMS;;;1.7;ICPMS;;;;;;;;;;;26.5;ICPMS;;;;;;;50;ICPMS;;;;;104;ICPMS;;;;;35;ICPMS;;;449;ICPMS;;;70;ICPMS;;;;;;;;;;;;;0.97;ICPMS;;;2595;ICPMS;;;69;ICPMS;;;145;ICPMS;;;18;72;ICPMS;;;;;13.1;ICPMS;;;6.76;ICPMS;;;10.36;ICPMS;;;1.45;ICPMS;;;7.54;ICPMS;;;1.44;3.43;ICPMS;;;0.49;3.1;ICPMS;;;0.51;9.4;4.92;;;;;;;;;;;;;;7;ICPMS;;;;;;;0.512704;;;;0.10956;;;;;;;;;;;;;;;;;;;;;;;;;;;;;;;;;;;;;;;;;;;;;;;;;;;;;;;;;;;;;;;;;;;;;;;;;;;;;;