Year;CITATION;SAMPLE NAME;UNIQUE_ID;LOCATION;LOCATION COMMENT;LATITUDE (MIN.);LONGITUDE (MIN.);LATITUDE (MAX.);LONGITUDE (MAX.);ELEVATION (MIN.);ELEVATION (MAX.);SAMPLING TECHNIQUE;DRILLING DEPTH (MIN.);DRILLING DEPTH (MAX.);LAND/SEA (SAMPLING);ROCK TYPE;ROCK NAME;ROCK TEXTURE;SAMPLE COMMENT;AGE (MIN.);AGE (MAX.);GEOLOGICAL AGE;GEOLOGICAL AGE PREFIX;ERUPTION DAY;ERUPTION MONTH;ERUPTION YEAR;ALTERATION;ALTERATION TYPE;TYPE OF MATERIAL;MINERAL / COMPONENT;SPOT (MINERAL);CRYSTAL;RIM / CORE (MINERAL GRAINS);PRIMARY/SECONDARY;INCLUSION TYPE;MINERAL (INCLUSION);HOSTMINERAL (INCLUSION);HEATING;SIO2(WT%);TIO2(WT%);ZRO2(WT%);HFO2(WT%);THO2(WT%);AL2O3(WT%);CR2O3(WT%);LA2O3(WT%);CE2O3(WT%);ND2O3(WT%);SM2O3(WT%);V2O3(WT%);NB2O5(WT%);FE2O3T(WT%);FE2O3(WT%);FEOT(WT%);FEO(WT%);FET(WT%);CAO(WT%);MGO(WT%);MNO(WT%);BAO(WT%);SRO(WT%);NIO(WT%);ZNO(WT%);RB2O(WT%);K2O(WT%);;;;NA2O(WT%);P2O5(WT%);AS2O5(WT%);H2O(WT%);H2OP(WT%);H2OM(WT%);CO2(WT%);C(WT%);F(WT%);CL(WT%);OH(WT%);SO3(WT%);S(WT%);LOI(WT%);TI(WT%);CA(WT%);K(WT%);LI(PPM);BE(PPM);B(PPM);F(PPM);P(PPM);S(PPM);CL(PPM);AR40(AT/G);;;;AR40(CCMSTP/G);;;;AR40(MOL/G);;;;AR40(PPB);K(PPM);SC(PPM);;;;TI(PPM);V(PPM);;;;CR(PPM);;;;CO(PPM);;;;NI(PPM);;;;CU(PPM);;;;ZN(PPM);;;;GA(PPM);;;;GE(PPM);AS(PPM);AS(PPB);SE(PPM);RB(PPM);;;;;;SR(PPM);;;;;;Y(PPM);;;;ZR(PPM);;;;NB(PPM);;;;MO(PPM);AG(PPM);CD(PPM);IN(PPM);SN(PPM);SB(PPM): altern. values or methods;;;;TE(PPM);CS(PPM): altern. values or methods;;;;BA(PPM): altern. values or methods;;;;LA(PPM): altern. values or methods;;;;CE(PPM): altern. values or methods;;;;PR(PPM);ND(PPM): altern. values or methods;;;;;;SM(PPM): altern. values or methods;;;;EU(PPM): altern. values or methods;;;;GD(PPM): altern. values or methods;;;;TB(PPM): altern. values or methods;;;;DY(PPM): altern. values or methods;;;;HO(PPM);ER(PPM): altern. values or methods;;;;TM(PPM);YB(PPM): altern. values or methods;;;;LU(PPM);HF(PPM);TA(PPM);W(PPM);RE(PPM);AU(PPM);HG(PPM);HG(PPB);TL(PPM);PB(PPM): altern. values or methods;;;;BI(PPM);PO210_ACT(DPM/G);RA226_ACT(DPM/G);TH(PPM): altern. values or methods;;;;U(PPM): altern. values or methods;;;;ND143_ND144;ND143_ND144_INI;EPSILON_ND;EPSILON_ND_INI;SM147_ND144;SR87_SR86;SR87_SR86_INI;EPSILON_SR_INI;RB87_SR86;PB206_PB204: altern. values or methods;;;;PB206_PB204_INI;PB207_PB204: altern. values or methods;;;;PB207_PB204_INI;PB207_PB206;PB208_PB204: altern. values or methods;;;;PB208_PB204_INI;PB208_PB206;HF176_HF177;LU176_HF177;AR38_AR36;AR40_AR36;AR40_AR36_INI;PB206_U238;PB207_U235;RA226_TH230_ACT;PA231_U235_ACT;TH230_TH232_ACT;TH230_U238_ACT;TH232_PB204;U234_U238_ACT;U235_PB204;U238_PB204;U238_TH232_ACT;D7LI(VS LSVEC);D13C(VS PDB);D18O(PER MIL);D18O(VS SMOW);D18O(VS VSMOW);D34S(VS VCDT);ALBITE(MOL%);ANORTHITE(MOL%);CA OLIVINE(MOL%);CHROMITE(MOL%);ENSTATITE(MOL%);FAYALITE(MOL%);FORSTERITE(MOL%);FERROSILITE(MOL%);HEMATITE(MOL%);HERCYNITE(MOL%);ILMENITE(MOL%);MAGNESIOFERRITE(MOL%);MONTICELLITE(MOL%);MAGNETITE(MOL%);ORTHOCLASE(MOL%);PICROCHROMITE(MOL%);SPINEL(MOL%);TEPHROITE(MOL%);ULVOSPINEL(MOL%);WOLLASTONITE(MOL%);AGE(KA): altern. values or methods;;;;;;AGE(MA): altern. values or methods;;;;;;AGE_PB207_U235(MA);AGE_PB206_U238(MA);
1978;[788] BROUSSE R. (1978);samp. 73Z;;MARQUESAS / UA POU;OAVE;-9.42;-140;-9.42;-140;;;OUTCROP;;;SUBAERIAL;VOLCANIC ROCK;BENMOREITE;;;;;;;;;;;;WHOLE ROCK;;;;;;;;;;54.05;0.96;;;;19.54;;;;;;;;;1.86;;2.85;;3.8;1.45;0.18;;;;;;5.5;NOT;;;6.85;0.28;;;1.32;1.2;;;;;;;;;;;;;;;;;;;;;;;;;;;;;;;;;;;;;;;;;;;;;;;;;;;;;;;;;;;;;;;;;;;;;;;;;;;;;;;;;;;;;;;;;;;;;;;;;;;;;;;;;;;;;;;;;;;;;;;;;;;;;;;;;;;;;;;;;;;;;;;;;;;;;;;;;;;;;;;;;;;;;;;;;;;;;;;;;;;;;;;;;;;;;;;;;;;;;;;;;;;;;;;;;;;;;;;;;;;;;;;;;;;;;;;;;;;;;;;;;;;;;;;;;;;;;;;;;;;;;;;
1974;[798] BAKER P. E. (1974);samp. 17704;;EASTER SEAMOUNT CHAIN - SALAS Y GOMEZ RIDGE / EASTER ISLAND (RAPA NUI) / TEREVAKA;ANA KAI TANGATA MATAVERI;-27.17;-109.33;-27.17;-109.33;;;OUTCROP;;;SUBAERIAL;VOLCANIC ROCK;BENMOREITE;;;;;;;;;;;;WHOLE ROCK;;;;;;;;;;58.79;1.06;;;;14.66;;;;;;;;;3.53;;7.01;;4.57;1.11;0.37;;;;;;1.86;NOT;;;5.36;0.48;;;0.69;0.26;;;0.06;0.18;;;;;;;;;;;;;;;;;;;;;;;;;;;;;;;;;;;;;;;;;;;;;;1;NOT;;;14;NOT;;;173;NOT;;;;;;;;;;;33;NOT;;;;;250;NOT;;;;;91;NOT;;;704;NOT;;;64;NOT;;;;;;;;;;;;;;;;;164;NOT;;;;;;;;;;;;;;;;;;;;;;;;;;;;;;;;;;;;;;;;;;;;;;;;;;;;;;;;;;;;;;;;;;;;;;;;;;;;;;;;;;;;;;;;;;;;;;;;;;;;;;;;;;;;;;;;;;;;;;;;;;;;;;;;;;;;;;;;;;;;;;;;;;;;;;;;;;
1974;[798] BAKER P. E. (1974);samp. 17516;;EASTER SEAMOUNT CHAIN - SALAS Y GOMEZ RIDGE / EASTER ISLAND (RAPA NUI) / RANO KAU;WESTERN SUMMIT;-27.17;-109.33;-27.17;-109.33;;;OUTCROP;;;SUBAERIAL;VOLCANIC ROCK;BENMOREITE;;;;;;;;;;;;WHOLE ROCK;;;;;;;;;;60.03;1.33;;;;15.08;;;;;;;;;4.74;;4.28;;3.8;1.64;0.08;;;;;;2.14;NOT;;;4.38;0.28;;;0.63;0.8;;;;;;;;;;;;;;;;;;;;;;;;;;;;;;;;;;;;;;;;;;;;;;;;;;6;NOT;;;17;NOT;;;143;NOT;;;;;;;;;;;54;NOT;;;;;154;NOT;;;;;84;NOT;;;831;NOT;;;83;NOT;;;;;;;;;;;;;;;;;286;NOT;;;;;;;;;;;;;;;;;;;;;;;;;;;;;;;;;;;;;;;;;;;;;;;;;;;;;;;;;;;;;;;;;;;;;;;;;;;;;;;;;;;;;;;;;;;;;;;;;;;;;;;;;;;;;;;;;;;;;;;;;;;;;;;;;;;;;;;;;;;;;;;;;;;;;;;;;;
1974;[798] BAKER P. E. (1974);samp. 17629;;EASTER SEAMOUNT CHAIN - SALAS Y GOMEZ RIDGE / EASTER ISLAND (RAPA NUI) / TEREVAKA;20 M WEST OF RANO A ROI;-27.17;-109.33;-27.17;-109.33;;;OUTCROP;;;SUBAERIAL;VOLCANIC ROCK;BENMOREITE;;;;;;;;;;;;WHOLE ROCK;;;;;;;;;;60.59;1.03;;;;14.17;;;;;;;;;4.27;;5.06;;3.78;0.92;0.48;;;;;;2.13;NOT;;;5.15;0.39;;;1.08;0.77;;;0.07;;;;;;;;;;;;;;;;;;;;;;;;;;;;;;;;;;;;;;;;;;;;;;;1;NOT;;;19;NOT;;;168;NOT;;;;;;;;;;;43;NOT;;;;;198;NOT;;;;;111;NOT;;;792;NOT;;;77;NOT;;;;;;;;;;;;;;;;;310;NOT;;;;;;;;;;;;;;;;;;;;;;;;;;;;;;;;;;;;;;;;;;;;;;;;;;;;;;;;;;;;;;;;;;;;;;;;;;;;;;;;;;;;;;;;;;;;;;;;;;;;;;;;;;;;;;;;;;;;;;;;;;;;;;;;;;;;;;;;;;;;;;;;;;;;;;;;;;
1997;[806] HAASE K. M. (1997);samp. EI9214;14404;EASTER SEAMOUNT CHAIN - SALAS Y GOMEZ RIDGE / EASTER ISLAND (RAPA NUI) / RANO KAU;ANA KAI TANGATA;-27.17;-109.33;-27.17;-109.33;;;OUTCROP;;;SUBAERIAL;VOLCANIC ROCK;BENMOREITE;;;;;;;;;;FRESH;;WHOLE ROCK;;;;;;;;;;58.8;1.182;;;;14.65;;;;;;;;11.58;;;;;4.57;1.14;0.26;;;;;;1.777;XRF;;;5.18;0.383;;;;;;;;;;;;;;;;;;;;;;;;;;;;;;;;;;;;;17.1;ICPMS;;;;11.8;ICPMS;;;1.24;ICPMS;;;3.59;ICPMS;;;0.01;ICPMS;;;5.21;ICPMS;;;135;ICPMS;;;;;;;;;;;28.3;ICPMS;;;;;209;ICPMS;;;;;85.2;ICPMS;;;672;ICPMS;;;64.1;ICPMS;;;;;;;;;;;;;0.325;ICPMS;;;265;ICPMS;;;49.6;ICPMS;;;127;ICPMS;;;15.4;64.8;ICPMS;;;;;15.5;ICPMS;;;4.81;ICPMS;;;16.4;ICPMS;;;2.55;ICPMS;;;14.9;ICPMS;;;2.78;8.53;ICPMS;;;1.15;7.73;ICPMS;;;1.07;14;3.89;;;;;;;2.85;ICPMS;;;;;;5.6;ICPMS;;;1.9;ICPMS;;;;;;;;;;;;;;;;;;;;;;;;;;;;;;;;;;;;;;;;;;;;;;;;;;;;;;;;;;;;;;;;;;;;;;;;;;;;;;;;;;;;;
1996;[829] WEAVER B. L. (1996);samp. AI-176;;ASCENSION / ASCENSION;LETTERBOX;-7.93;-14.37;-7.93;-14.37;;;OUTCROP;;;SUBAERIAL;VOLCANIC ROCK;BENMOREITE;;;;;;;;;;;;WHOLE ROCK;;;;;;;;;;57.3;1.52;;;;16.64;;;;;;;;8.31;;;;;4.85;2.3;0.23;;;;;;2.56;XRF;;;5.55;0.74;;;;0.17;;;;;;;;0.13;;;;;;;;;;;;;;;;;;;;;;;;;13.7;INAA;;;;44;XRF;;;2;XRF;;;;;;;5;XRF;;;;;;;139;XRF;;;28;XRF;;;;;;;56;XRF;;;;;431;XRF;;;;;63;XRF;;;530;XRF;;;97;XRF;;;;;;;;;;;;;;;;;584;XRF;;;56.4;INAA;;;118;INAA;;;;62.7;INAA;;;;;13.6;INAA;;;4.3;INAA;;;;;;;2.04;INAA;;;;;;;;;;;;;4.84;INAA;;;0.66;11.3;5.77;;;;;;;2;XRF;;;;;;6.56;INAA;;;;;;;;;;;;;;;;;;;;;;;;;;;;;;;;;;;;;;;;;;;;;;;;;;;;;;;;;;;;;;;;;;;;;;;;;;;;;;;;;;;;;;;;;
1996;[829] WEAVER B. L. (1996);samp. AI-76;;ASCENSION / ASCENSION;BROKEN TOOTH;-7.93;-14.37;-7.93;-14.37;;;OUTCROP;;;SUBAERIAL;VOLCANIC ROCK;BENMOREITE;;;;;;;;;;;;WHOLE ROCK;;;;;;;;;;60.05;1.24;;;;15.98;;;;;;;;7.19;;;;;3.37;2.1;0.2;;;;;;3.65;XRF;;;5.55;0.67;;;;0.42;;;;;;;;0.92;;;;;;;;;;;;;;;;;;;;;;;;;18.6;INAA;;;;46;XRF;;;4;XRF;;;;;;;4;XRF;;;;;;;110;XRF;;;28;XRF;;;;;;;51;XRF;;;;;203;XRF;;;;;57;XRF;;;516;XRF;;;81;XRF;;;;;;;;;;;;;;;;;573;XRF;;;49.7;INAA;;;106;INAA;;;;57.3;INAA;;;;;12.5;INAA;;;3.61;INAA;;;;;;;1.83;INAA;;;;;;;;;;;;;4.92;INAA;;;0.69;10.5;4.94;;;;;;;4;XRF;;;;;;6.45;INAA;;;;;;;;;;;;;;;;;;;;;;;;;;;;;;;;;;;;;;;;;;;;;;;;;;;;;;;;;;;;;;;;;;;;;;;;;;;;;;;;;;;;;;;;;
1991;[900] HOERNLE K. A. (1991);samp. RNB31;;CANARY ISLANDS / GRAN CANARIA / POST-SHIELD STAGE / ROQUE NUBLO FORMATION;;28;-15.6;28;-15.6;;;OUTCROP;;;SUBAERIAL;VOLCANIC ROCK;BENMOREITE;;;;;PLIOCENE;;;;;;;WHOLE ROCK;;;;;;;;;;;;;;;;;;;;;;;;;;;;;;;;;;;;;;;;;;;;;;;;;;;;;;;;;;;;;;;;;;;;;;;;;;;;;;;;;;;;;;;;;;;;;;;;;;;;;;;;;;;;;;;;;;;62.06;TIMS_ID;;;;;1753;TIMS_ID;;;;;;;;;;;;;;;;;;;;;;;;;;;;;;;;;;;;;;;;;;;;76.46;TIMS_ID;;;;;12.08;TIMS_ID;;;;;;;;;;;;;;;;;;;;;;;;;;;;;;;;;;;;;;8.99;TIMS_ID;;;;;;16.06;TIMS_ID;;;2.57;TIMS_ID;;;;0.512777;;;;;0.703232;;;;;;;19.115;;;;;15.53;;;;;;39.103;;;;;;;;;;;;;;;;;;;;;;;;;;;;;;;;;;;;;;;;;;;;;;;;;;;;;;;;;;
1980;[1162] AIRES-BARROS L. (1980);samp. 326;;MADEIRA ARCHIPELAGO / MADEIRA;DIKE;32.75;-17;32.75;-17;;;OUTCROP;;;SUBAERIAL;VOLCANIC ROCK;BENMOREITE;;;;;;;;;;;;WHOLE ROCK;;;;;;;;;;56.04;1.45;;;;18.41;;;;;;;;;3.56;;2;;5.88;1.08;0.04;;;;;;4.26;NOT;;;6.53;0.28;;;;;;;;;;;;;;;;;;;;;;;;;;;;;;;;;;;;35349;;;;;;;;;;;;;;;;;;;;;;33;NOT;;;79;NOT;;;;;;;;;;;58;NOT;;;;;1349;NOT;;;;;38;NOT;;;557;NOT;;;;;;;;;;;;;;;;;;;;;;;;;;;;;;;;;;;;;;;;;;;;;;;;;;;;;;;;;;;;;;;;;;;;;;;;;;;;;;;;;;;;;;;;;;;;;;;;;;;;;;;;;;;;;;;;;;;;;;;;;;;;;;;;;;;;;;;;;;;;;;;;;;;;;;;;;;;;;;;;;;;;;;;;;;;;;;;;
1984;[1175] VIDAL P. (1984);samp. 5427(73R);;MARQUESAS / UA POU;;-9.42;-140;-9.42;-140;;;OUTCROP;;;SUBAERIAL;VOLCANIC ROCK;BENMOREITE;;;;;;;;;;;;WHOLE ROCK;;;;;;;;;;;;;;;;;;;;;;;;;;;;;;;;;;;;;;;;;;;;;;;;;;;;;;;;;;;;;;;;;;;;;;;;;;;;;;;;;;;;;;;;;;;;;;;;;;;;;;;;;;;;;;;;;;;117;XRF;;;;;1032;XRF;;;;;;;;;;;;;;;;;;;;;;;;;;;;;;;;;;;;;;;;;;;;;;;;;;;;;;;;;;;;;;;;;;;;;;;;;;;;;;;;;;;;;;;;;10;XRF;;;;;;;;;;;;;;0.51275;;;;;0.704743;;;;19.22;TIMS;;;;15.63;TIMS;;;;;39.12;TIMS;;;;;;;;;;;;;;;;;;;;;;;;;;;;;;;;;;;;;;;;;;;;;;;;;;;;;;;;;;;;;
1984;[1175] VIDAL P. (1984);samp. 5444(76F);;MARQUESAS / NUKU HIVA;;-8.93;-140;-8.93;-140;;;OUTCROP;;;SUBAERIAL;VOLCANIC ROCK;BENMOREITE;;;;;;;;;;;;WHOLE ROCK;;;;;;;;;;;;;;;;;;;;;;;;;;;;;;;;;;;;;;;;;;;;;;;;;;;;;;;;;;;;;;;;;;;;;;;;;;;;;;;;;;;;;;;;;;;;;;;;;;;;;;;;;;;;;;;;;;;174;XRF;;;;;457;XRF;;;;;;;;;;;;;;;;;;;;;;;;;;;;;;;;;;;;;;;;;;;;;;;;;;;;;;;;;;;;;;;;;;;;;;;;;;;;;;;;;;;;;;;;;;;;;;;;;;;;;;;;;;;;;0.705134;;;;;;;;;;;;;;;;;;;;;;;;;;;;;;;;;;;;;;;;;;;;;;;;;;;;;;;;;;;;;;;;;;;;;;;;;;;;;
1992;[1185] MAURY R. C. (1992);samp. FR930.7;9265;PITCAIRN-GAMBIER CHAIN / MURUROA ATOLL;;-21.88;-138.75;-21.88;-138.75;;;DRILL HOLE ;930.7;930.7;SUBAERIAL;VOLCANIC ROCK;BENMOREITE;;;;;;;;;;;;MINERAL / COMPONENT (INCL. GROUNDMASS);AMPHIBOLE;;PHENOCRYST;CORE;PRIMARY;;;;;40.25;5.46;;;;12.59;;;;;;;;;;13.51;;;11.17;11.04;0.26;;;;;;1.02;EMP (EPMA);;;2.76;;;;;;;;;;;;;;;;;;;;;;;;;;;;;;;;;;;;;;;;;;;;;;;;;;;;;;;;;;;;;;;;;;;;;;;;;;;;;;;;;;;;;;;;;;;;;;;;;;;;;;;;;;;;;;;;;;;;;;;;;;;;;;;;;;;;;;;;;;;;;;;;;;;;;;;;;;;;;;;;;;;;;;;;;;;;;;;;;;;;;;;;;;;;;;;;;;;;;;;;;;;;;;;;;;;;;;;;;;;;;;;;;;;;;;;;;;;;;;;;;;;;;;;;;;;;;;;;;;;;;;;;;;;;
1992;[1185] MAURY R. C. (1992);samp. FR930.7;9265;PITCAIRN-GAMBIER CHAIN / MURUROA ATOLL;;-21.88;-138.75;-21.88;-138.75;;;DRILL HOLE ;930.7;930.7;SUBAERIAL;VOLCANIC ROCK;BENMOREITE;;;;;;;;;;;;WHOLE ROCK;;;;;;;;;;56.8;1.11;;;;17.7;;;;;;;;7.33;;;;;3.64;1.74;0.11;;;;;;3.49;AAS;;;5.71;0.35;;;;0.82;;;;;;;;1.12;;;;11;;;;;;;;;;;;;;;;;;;;;3.92;INAA;;;;10;AAS;;;8;AAS;;;5;AAS;;;2;AAS;;;8;AAS;;;117;AAS;;;;;;;;;;;70;AAS;70;AAS;;;771;AAS;771;AAS;;;34.69;ICPMS;;;698;INAA;;;;;;;;;;;;;;;;;;;;;676;AAS;;;78.03;ICPMS;;;160;ICPMS;;;;65.8;ICPMS;;;;;12.29;ICPMS;;;3.69;ICPMS;;;8.8;ICPMS;;;;;;;6.22;ICPMS;;;;2.9;ICPMS;;;;2.86;ICPMS;;;0.4;16.03;11.1;;;;;;;;;;;;;;12.5;INAA;;;;;;;0.512933;;;;;0.703533;;;;;;;;;;;;;;;;;;;;;;;;;;;;;;;;;;;;;;;;;;;;;;;;;;;;;;;;;;;;;;;;;;;;;;;;;;;;;
1992;[1185] MAURY R. C. (1992);samp. HD310.8;;PITCAIRN-GAMBIER CHAIN / MURUROA ATOLL;;-21.88;-138.75;-21.88;-138.75;;;DRILL HOLE ;310.8;310.8;SUBAERIAL;VOLCANIC ROCK;BENMOREITE;;;;;;;;;;;;WHOLE ROCK;;;;;;;;;;;;;;;;;;;;;;;;;;;;;;;;;;;;;;;;;;;;;;;;;;;;;;;;;;;;;;;;;;;;;;;;;;;;;;;;;;;;;;;;;;;;;;;;;;;;;;;;;;;;;;;;;;;24;AAS;;;;;616;AAS;;;;;;;;;;;;;;;;;;;;;;;;;;;;;;;;;;;;;;;;;;;;;;;;;;;;;;;;;;;;;;;;;;;;;;;;;;;;;;;;;;;;;;;;;;;;;;;;;;;;;;;;0.512928;;;;;0.703409;;;;;;;;;;;;;;;;;;;;;;;;;;;;;;;;;;;;;;;;;;;;;;;;;;;;;;;;;;;;;;;;;;;;;;;;;;;;;
1990;[1203] WEAVER B. L. (1990);samp. 67165;;FERNANDO DE NORONHA ARCHIPELAGO / FERNANDO DE NORONHA / QUIXABA FORMATION;;-3.85;-32.42;-3.85;-32.42;;;OUTCROP;;;SUBAERIAL;VOLCANIC ROCK;BENMOREITE;;;;;;;;;;;;WHOLE ROCK;;;;;;;;;;53.61;1.22;;;;19.65;;;;;;;;4.98;;;;;2.92;2.7;0.09;;;;;;7.27;XRF;;;2.19;0.27;;;;;;;;;;;;5.31;;;;;;;;;;;;;;;;;;;;;;;;;7.5;NOT;;;;93;NOT;;;62;NOT;;;13.9;NOT;;;48;NOT;;;;;;;88;NOT;;;;;;;;;;;239;NOT;;;;;1170;NOT;;;;;17;NOT;;;741;NOT;;;121;NOT;;;;;;;;;;;;;1.36;NOT;;;1000;NOT;;;87;NOT;87;INAA;109;NOT;117;INAA;;35;NOT;34.5;INAA;;;5.39;INAA;;;1.84;NOT;1.59;INAA;;;;;0.51;NOT;0.63;INAA;;;;;;;;;;;1.46;INAA;;;0.21;12.7;4.37;;;;;;;;;;;;;;28.2;NOT;;;6;NOT;;;;;;;;;;;;;;;;;;;;;;;;;;;;;;;;;;;;;;;;;;;;;;;;;;;;;;;;;;;;;;;;;;;;;;;;;;;;;;;;;;;;;
1991;[1216] HOERNLE K. A. (1991);samp. CF15;;CANARY ISLANDS / FUERTEVENTURA / BASAL COMPLEX;POST-ESQUINZO COMPLEX, DIKE;28.38;-14.47;28.38;-14.47;;;OUTCROP;;;SUBAERIAL;VOLCANIC ROCK;BENMOREITE;;;;;;;;;;EXTENSIVELY ALTERED;ALBITE-EPIDOTE GREENSCHIST FACIES;WHOLE ROCK;;;;;;;;;;52;;;;;;;;;;;;;;;;;;;;;;;;;;;;;;;;;;;;;;;;;;;;;;;;;;;;;;;;;;;;;;;;;;;;;;;;;;;;;;;;;;;;;;;;;;;;;;;;;;;;;;;;;60.1;TIMS_ID;;;;;3322.4;TIMS_ID;;;;;;;;;;;;;;;;;;;;;;;;;;;;;;;;;;;;;;;;;;;;11.96;TIMS_ID;;;;;2.43;TIMS_ID;;;;;;;;;;;;;;;;;;;;;;;;;;;;;;;;;;;;;;14.97;TIMS_ID;;;;;;0.42;TIMS_ID;;;0.51;TIMS_ID;;;0.512887;;;;0.12;0.703318;;;0.05;19.819;TIMS;;;;15.599;TIMS;;;;;39.611;TIMS;;;;;;;;;;;;;;;;;;;;;;;;;;;;;;;;;;;;;;;;;;;;;;;;;;;;;;;;;;;;;
1993;[1248] CAROFF M. (1993);samp. FR930.7;9265;PITCAIRN-GAMBIER CHAIN / MURUROA ATOLL;;-21.88;-138.75;-21.88;-138.75;;;DRILL HOLE ;930.7;930.7;SUBAERIAL;VOLCANIC ROCK;BENMOREITE;;;;;;;;;;;;WHOLE ROCK;;;;;;;;;;56.8;1.11;;;;17.7;;;;;;;;7.33;;;;;3.64;1.74;0.11;;;;;;3.49;AAS;;;5.71;0.35;;;;;;;;;;;;1.94;;;;;;;;;;;;;;;;;;;;;;;;;3.92;NAA;;;;;;;;8;AAS;;;5;AAS;;;2;AAS;;;;;;;;;;;;;;;;;;;70;AAS;;;;;771;AAS;;;;;34.69;ICPMS;;;;;;;;;;;;;;;;;;;;;;;;;676;AAS;;;78.03;ICPMS;;;160;ICPMS;;;;65.8;ICPMS;;;;;12.29;ICPMS;;;3.69;ICPMS;;;8.8;ICPMS;;;1.04;NAA;;;6.26;ICPMS;;;;2.9;ICPMS;;;;2.86;ICPMS;;;0.4;16.03;11.1;;;;;;;;;;;;;;12.5;NAA;;;2.13;NAA;;;;;;;;;;;;;;;;;;;;;;;;;;;;;;;;;;;;;;;;;;;;;;;;;;;;;;;;;;;;;;;;;;;;;;;;;;;;;;;;;;;;;
1993;[1248] CAROFF M. (1993);samp. P3488.0;;PITCAIRN-GAMBIER CHAIN / MURUROA ATOLL;;-21.88;-138.75;-21.88;-138.75;;;DRILL HOLE ;488;488;SUBAERIAL;VOLCANIC ROCK;BENMOREITE;;;;;;;;;;;;WHOLE ROCK;;;;;;;;;;58.2;1.44;;;;17.45;;;;;;;;6.05;;;;;3.74;0.9;0.19;;;;;;3.88;AAS;;;5.43;0.55;;;;;;;;;;;;1.64;;;;;;;;;;;;;;;;;;;;;;;;;7.76;NAA;;;;;;;;1;AAS;;;9;AAS;;;;;;;;;;;;;;;;;;;;;;;88;AAS;;;;;755;AAS;;;;;43.98;ICPMS;;;;;;;;;;;;;;;;;;;;;;;;;616;AAS;;;88.98;ICPMS;;;181;ICPMS;;;;78.47;ICPMS;;;;;15.54;ICPMS;;;4.45;ICPMS;;;10.51;ICPMS;;;1.39;NAA;;;7.5;ICPMS;;;;3.26;ICPMS;;;;3.12;ICPMS;;;0.43;18.8;9.16;;;;;;;;;;;;;;11.06;NAA;;;3.13;NAA;;;;;;;;;;;;;;;;;;;;;;;;;;;;;;;;;;;;;;;;;;;;;;;;;;;;;;;;;;;;;;;;;;;;;;;;;;;;;;;;;;;;;
1980;[1257] FERAUD G. (1980);samp. T16;8832;AZORES / TERCEIRA / SANTA BARBARA;CALDERA;38.72;-27.22;38.72;-27.22;;;OUTCROP;;;SUBAERIAL;VOLCANIC ROCK;BENMOREITE;;;;;;;;;;;;WHOLE ROCK;;;;;;;;;;;;;;;;;;;;;;;;;;;;;;;;;;;;3.07;NOT;;;;;;;;;;;;;;;;;;;;;;;;;;;;;;;;;;;;;;;;;;;;;;;;;;;;;;;;;;;;;;;;;;;;;;;;;;;;;;;;;;;;;;;;;;;;;;;;;;;;;;;;;;;;;;;;;;;;;;;;;;;;;;;;;;;;;;;;;;;;;;;;;;;;;;;;;;;;;;;;;;;;;;;;;;;;;;;;;;;;;;;;;;;;;;;;;;;;;;;;;;;;;;;;;;;;;;;;;;;;;;;;;;;;;;;;;;;;;;;;;;;;;;;;;;;;;;;;;;;;;;;;;;;;;;;
1977;[1261] HAVETTE A. (1977);samp. 1;;MASCARENE ISLANDS INCL. REUNION / REUNION / PITON DES NEIGES;CIRQUE DE SALAZIE, RIGHT BANK OF MAT RIVER;-21.05;55.54;-21.05;55.54;1430;1430;OUTCROP;;;SUBAERIAL;VOLCANIC ROCK;BENMOREITE;;IGNIMBRITE;;;;;;;;SLIGHTLY ALTERED;;WHOLE ROCK;;;;;;;;;;59.3;0.64;;;;16.79;;;;;;;;;6.49;;2.63;;2.99;1.28;0.07;;;;;;3.11;NOT;;;4.78;0.08;;;1.28;0.72;;;;;;;;;;;;;;;;;;;;;;;;;;;;;;;;;;;;;;;;;;;;;;;;;;;;;;;;;;;;;;;;;;;;;;;;;;;;;;;;;;;;;;;;;;;;;;;;;;;;;;;;;;;;;;;;;;;;;;;;;;;;;;;;;;;;;;;;;;;;;;;;;;;;;;;;;;;;;;;;;;;;;;;;;;;;;;;;;;;;;;;;;;;;;;;;;;;;;;;;;;;;;;;;;;;;;;;;;;;;;;;;;;;;;;;;;;;;;;;;;;;;;;;;;;;;;;;;;;;;;;;
1977;[1261] HAVETTE A. (1977);samp. 1;;MASCARENE ISLANDS INCL. REUNION / REUNION / PITON DES NEIGES;CIRQUE DE SALAZIE, RIGHT BANK OF MAT RIVER;-21.05;55.54;-21.05;55.54;1430;1430;OUTCROP;;;SUBAERIAL;VOLCANIC ROCK;BENMOREITE;;IGNIMBRITE;;;;;;;;SLIGHTLY ALTERED;;MINERAL / COMPONENT (INCL. GROUNDMASS);PLAGIOCLASE;1;;;PRIMARY;;;;;;;;;;;;;;;;;;;;;;;0.6;;;;;;;;5.35;EMP (EPMA);;;7.42;;;;;;;;;;;;;;;;;;;;;;;;;;;;;;;;;;;;;;;;;;;;;;;;;;;;;;;;;;;;;;;;;;;;;;;;;;;;;;;;;;;;;;;;;;;;;;;;;;;;;;;;;;;;;;;;;;;;;;;;;;;;;;;;;;;;;;;;;;;;;;;;;;;;;;;;;;;;;;;;;;;;;;;;;;;;;;;;;;;;;;;;;;;;;;;;;;;;;;;;;;;;;;;;;;;;;;;;;;;;;;;;;;;;;;;;;;;;;;;;;;;;;;;;;;;;;;;;;;;;;;;;;;;;
1977;[1261] HAVETTE A. (1977);samp. 1;;MASCARENE ISLANDS INCL. REUNION / REUNION / PITON DES NEIGES;CIRQUE DE SALAZIE, RIGHT BANK OF MAT RIVER;-21.05;55.54;-21.05;55.54;1430;1430;OUTCROP;;;SUBAERIAL;VOLCANIC ROCK;BENMOREITE;;IGNIMBRITE;;;;;;;;SLIGHTLY ALTERED;;MINERAL / COMPONENT (INCL. GROUNDMASS);PLAGIOCLASE;2;;;PRIMARY;;;;;;;;;;;;;;;;;;;;;;;0.75;;;;;;;;5.5;EMP (EPMA);;;7.5;;;;;;;;;;;;;;;;;;;;;;;;;;;;;;;;;;;;;;;;;;;;;;;;;;;;;;;;;;;;;;;;;;;;;;;;;;;;;;;;;;;;;;;;;;;;;;;;;;;;;;;;;;;;;;;;;;;;;;;;;;;;;;;;;;;;;;;;;;;;;;;;;;;;;;;;;;;;;;;;;;;;;;;;;;;;;;;;;;;;;;;;;;;;;;;;;;;;;;;;;;;;;;;;;;;;;;;;;;;;;;;;;;;;;;;;;;;;;;;;;;;;;;;;;;;;;;;;;;;;;;;;;;;;
1977;[1261] HAVETTE A. (1977);samp. 1;;MASCARENE ISLANDS INCL. REUNION / REUNION / PITON DES NEIGES;CIRQUE DE SALAZIE, RIGHT BANK OF MAT RIVER;-21.05;55.54;-21.05;55.54;1430;1430;OUTCROP;;;SUBAERIAL;VOLCANIC ROCK;BENMOREITE;;IGNIMBRITE;;;;;;;;SLIGHTLY ALTERED;;MINERAL / COMPONENT (INCL. GROUNDMASS);CLINOPYROXENE;1;;;PRIMARY;;;;;48.15;0.6;;;;0.42;;;;;;;;;;28.2;;;20.33;0.52;;;;;;;0;EMP (EPMA);;;0.66;;;;;;;;;;;;;;;;;;;;;;;;;;;;;;;;;;;;;;;;;;;;;;;;;;;;;;;;;;;;;;;;;;;;;;;;;;;;;;;;;;;;;;;;;;;;;;;;;;;;;;;;;;;;;;;;;;;;;;;;;;;;;;;;;;;;;;;;;;;;;;;;;;;;;;;;;;;;;;;;;;;;;;;;;;;;;;;;;;;;;;;;;;;;;;;;;;;;;;;;;;;;;;;;;;;;;;;;;;;;;;;;;;;;;;;;;;;;;;;;;;;;;;;;;;;;;;;;;;;;;;;;;;;;
1977;[1261] HAVETTE A. (1977);samp. 1;;MASCARENE ISLANDS INCL. REUNION / REUNION / PITON DES NEIGES;CIRQUE DE SALAZIE, RIGHT BANK OF MAT RIVER;-21.05;55.54;-21.05;55.54;1430;1430;OUTCROP;;;SUBAERIAL;VOLCANIC ROCK;BENMOREITE;;IGNIMBRITE;;;;;;;;SLIGHTLY ALTERED;;MINERAL / COMPONENT (INCL. GROUNDMASS);CLINOPYROXENE;2;;;PRIMARY;;;;;47.9;0.43;;;;0.34;;;;;;;;;;28.18;;;20.23;0.61;;;;;;;0.03;EMP (EPMA);;;0.5;;;;;;;;;;;;;;;;;;;;;;;;;;;;;;;;;;;;;;;;;;;;;;;;;;;;;;;;;;;;;;;;;;;;;;;;;;;;;;;;;;;;;;;;;;;;;;;;;;;;;;;;;;;;;;;;;;;;;;;;;;;;;;;;;;;;;;;;;;;;;;;;;;;;;;;;;;;;;;;;;;;;;;;;;;;;;;;;;;;;;;;;;;;;;;;;;;;;;;;;;;;;;;;;;;;;;;;;;;;;;;;;;;;;;;;;;;;;;;;;;;;;;;;;;;;;;;;;;;;;;;;;;;;;
1977;[1261] HAVETTE A. (1977);samp. 1;;MASCARENE ISLANDS INCL. REUNION / REUNION / PITON DES NEIGES;CIRQUE DE SALAZIE, RIGHT BANK OF MAT RIVER;-21.05;55.54;-21.05;55.54;1430;1430;OUTCROP;;;SUBAERIAL;VOLCANIC ROCK;BENMOREITE;;IGNIMBRITE;;;;;;;;SLIGHTLY ALTERED;;MINERAL / COMPONENT (INCL. GROUNDMASS);CLINOPYROXENE;;;;PRIMARY;;;;;48;2.3;;;;3.9;;;;;;;;;;8.4;;;22.2;14.2;;;;;;;;;;;0.35;;;;;;;;;;;;;;;;;;;;;;;;;;;;;;;;;;;;;;;;;;;;;;;;;;;;;;;;;;;;;;;;;;;;;;;;;;;;;;;;;;;;;;;;;;;;;;;;;;;;;;;;;;;;;;;;;;;;;;;;;;;;;;;;;;;;;;;;;;;;;;;;;;;;;;;;;;;;;;;;;;;;;;;;;;;;;;;;;;;;;;;;;;;;;;;;;;;;;;;;;;;;;;;;;;;;;;;;;;;;;;;;;;;;;;;;;;;;;;;;;;;;;;;;;;;;;;;;;;;;;;;;;;;;
1977;[1261] HAVETTE A. (1977);samp. 1;;MASCARENE ISLANDS INCL. REUNION / REUNION / PITON DES NEIGES;CIRQUE DE SALAZIE, RIGHT BANK OF MAT RIVER;-21.05;55.54;-21.05;55.54;1430;1430;OUTCROP;;;SUBAERIAL;VOLCANIC ROCK;BENMOREITE;;IGNIMBRITE;;;;;;;;SLIGHTLY ALTERED;;MINERAL / COMPONENT (INCL. GROUNDMASS);CLINOPYROXENE;1;;;PRIMARY;;;;;48.55;2.39;;;;4.61;;;;;;;;;;7.71;;;21.79;13.72;;;;;;;0.01;EMP (EPMA);;;0.37;;;;;;;;;;;;;;;;;;;;;;;;;;;;;;;;;;;;;;;;;;;;;;;;;;;;;;;;;;;;;;;;;;;;;;;;;;;;;;;;;;;;;;;;;;;;;;;;;;;;;;;;;;;;;;;;;;;;;;;;;;;;;;;;;;;;;;;;;;;;;;;;;;;;;;;;;;;;;;;;;;;;;;;;;;;;;;;;;;;;;;;;;;;;;;;;;;;;;;;;;;;;;;;;;;;;;;;;;;;;;;;;;;;;;;;;;;;;;;;;;;;;;;;;;;;;;;;;;;;;;;;;;;;;