Year;CITATION;SAMPLE NAME;UNIQUE_ID;LOCATION;LOCATION COMMENT;LATITUDE (MIN.);LONGITUDE (MIN.);LATITUDE (MAX.);LONGITUDE (MAX.);ELEVATION (MIN.);ELEVATION (MAX.);SAMPLING TECHNIQUE;DRILLING DEPTH (MIN.);DRILLING DEPTH (MAX.);LAND/SEA (SAMPLING);ROCK TYPE;ROCK NAME;ROCK TEXTURE;SAMPLE COMMENT;AGE (MIN.);AGE (MAX.);GEOLOGICAL AGE;GEOLOGICAL AGE PREFIX;ERUPTION DAY;ERUPTION MONTH;ERUPTION YEAR;ALTERATION;ALTERATION TYPE;TYPE OF MATERIAL;MINERAL / COMPONENT;SPOT (MINERAL);CRYSTAL;RIM / CORE (MINERAL GRAINS);PRIMARY/SECONDARY;INCLUSION TYPE;MINERAL (INCLUSION);HOSTMINERAL (INCLUSION);HEATING;SIO2(WT%);TIO2(WT%);ZRO2(WT%);HFO2(WT%);THO2(WT%);AL2O3(WT%);CR2O3(WT%);LA2O3(WT%);CE2O3(WT%);ND2O3(WT%);SM2O3(WT%);V2O3(WT%);NB2O5(WT%);FE2O3T(WT%);FE2O3(WT%);FEOT(WT%);FEO(WT%);FET(WT%);CAO(WT%);MGO(WT%);MNO(WT%);BAO(WT%);SRO(WT%);NIO(WT%);ZNO(WT%);RB2O(WT%);K2O(WT%);;;;NA2O(WT%);P2O5(WT%);AS2O5(WT%);H2O(WT%);H2OP(WT%);H2OM(WT%);CO2(WT%);C(WT%);F(WT%);CL(WT%);OH(WT%);SO3(WT%);S(WT%);LOI(WT%);TI(WT%);CA(WT%);K(WT%);LI(PPM);BE(PPM);B(PPM);F(PPM);P(PPM);S(PPM);CL(PPM);AR40(AT/G);;;;AR40(CCMSTP/G);;;;AR40(MOL/G);;;;AR40(PPB);K(PPM);SC(PPM);;;;TI(PPM);V(PPM);;;;CR(PPM);;;;CO(PPM);;;;NI(PPM);;;;CU(PPM);;;;ZN(PPM);;;;GA(PPM);;;;GE(PPM);AS(PPM);AS(PPB);SE(PPM);RB(PPM);;;;;;SR(PPM);;;;;;Y(PPM);;;;ZR(PPM);;;;NB(PPM);;;;MO(PPM);AG(PPM);CD(PPM);IN(PPM);SN(PPM);SB(PPM): altern. values or methods;;;;TE(PPM);CS(PPM): altern. values or methods;;;;BA(PPM): altern. values or methods;;;;LA(PPM): altern. values or methods;;;;CE(PPM): altern. values or methods;;;;PR(PPM);ND(PPM): altern. values or methods;;;;;;SM(PPM): altern. values or methods;;;;EU(PPM): altern. values or methods;;;;GD(PPM): altern. values or methods;;;;TB(PPM): altern. values or methods;;;;DY(PPM): altern. values or methods;;;;HO(PPM);ER(PPM): altern. values or methods;;;;TM(PPM);YB(PPM): altern. values or methods;;;;LU(PPM);HF(PPM);TA(PPM);W(PPM);RE(PPM);AU(PPM);HG(PPM);HG(PPB);TL(PPM);PB(PPM): altern. values or methods;;;;BI(PPM);PO210_ACT(DPM/G);RA226_ACT(DPM/G);TH(PPM): altern. values or methods;;;;U(PPM): altern. values or methods;;;;ND143_ND144;ND143_ND144_INI;EPSILON_ND;EPSILON_ND_INI;SM147_ND144;SR87_SR86;SR87_SR86_INI;EPSILON_SR_INI;RB87_SR86;PB206_PB204: altern. values or methods;;;;PB206_PB204_INI;PB207_PB204: altern. values or methods;;;;PB207_PB204_INI;PB207_PB206;PB208_PB204: altern. values or methods;;;;PB208_PB204_INI;PB208_PB206;HF176_HF177;LU176_HF177;AR38_AR36;AR40_AR36;AR40_AR36_INI;PB206_U238;PB207_U235;RA226_TH230_ACT;PA231_U235_ACT;TH230_TH232_ACT;TH230_U238_ACT;TH232_PB204;U234_U238_ACT;U235_PB204;U238_PB204;U238_TH232_ACT;D7LI(VS LSVEC);D13C(VS PDB);D18O(PER MIL);D18O(VS SMOW);D18O(VS VSMOW);D34S(VS VCDT);ALBITE(MOL%);ANORTHITE(MOL%);CA OLIVINE(MOL%);CHROMITE(MOL%);ENSTATITE(MOL%);FAYALITE(MOL%);FORSTERITE(MOL%);FERROSILITE(MOL%);HEMATITE(MOL%);HERCYNITE(MOL%);ILMENITE(MOL%);MAGNESIOFERRITE(MOL%);MONTICELLITE(MOL%);MAGNETITE(MOL%);ORTHOCLASE(MOL%);PICROCHROMITE(MOL%);SPINEL(MOL%);TEPHROITE(MOL%);ULVOSPINEL(MOL%);WOLLASTONITE(MOL%);AGE(KA): altern. values or methods;;;;;;AGE(MA): altern. values or methods;;;;;;AGE_PB207_U235(MA);AGE_PB206_U238(MA);
2010;[14264] NICOTRA E. (2010);samp. EL85;;ETNA/SICILY / ELLITTICO-MONGIBELLO TRANSITION SEQUENCE;PIANO DELLE CONCAZZE AREA, BETWEEN PIZZI DE NERI AND THE NORTH EAST CRATER;37.73;15;37.73;15;2790;2790;OUTCROP;;;SUBAERIAL;VOLCANIC ROCK;BENMOREITE;MESOPHYRIC, SERIATE;LAVA FLOW AT THE BOTTOM;15000;15000;PLEISTOCENE;;;;;;;MINERAL / COMPONENT (INCL. GROUNDMASS);PHLOGOPITE;;;;PRIMARY;;;;;41.0509;4.1681;;;;11.0721;0.0063;;;;;;;;;8.5879;;;0;20.4112;0.0802;;;;;;8.9859;EMP (EPMA);;;1.0139;;;;;;;;6.3366;0.086;;;;;;;;;;;;;;;;;;;;;;;;;;;;;;;;;;;;;;;;;;;;;;;;;;;;;;;;;;;;;;;;;;;;;;;;;;;;;;;;;;;;;;;;;;;;;;;;;;;;;;;;;;;;;;;;;;;;;;;;;;;;;;;;;;;;;;;;;;;;;;;;;;;;;;;;;;;;;;;;;;;;;;;;;;;;;;;;;;;;;;;;;;;;;;;;;;;;;;;;;;;;;;;;;;;;;;;;;;;;;;;;;;;;;;;;;;;;;;;;;;;;;;;;;;;;;;;;;;;
2010;[14264] NICOTRA E. (2010);samp. EL85;;ETNA/SICILY / ELLITTICO-MONGIBELLO TRANSITION SEQUENCE;PIANO DELLE CONCAZZE AREA, BETWEEN PIZZI DE NERI AND THE NORTH EAST CRATER;37.73;15;37.73;15;2790;2790;OUTCROP;;;SUBAERIAL;VOLCANIC ROCK;BENMOREITE;MESOPHYRIC, SERIATE;LAVA FLOW AT THE BOTTOM;15000;15000;PLEISTOCENE;;;;;;;MINERAL / COMPONENT (INCL. GROUNDMASS);PHLOGOPITE;;;;PRIMARY;;;;;41.0989;4.0917;;;;11.1652;0.0063;;;;;;;;;9.1877;;;0.0124;20.6116;0.0883;;;;;;8.8656;EMP (EPMA);;;1.2404;;;;;;;;6.5937;0.0502;;;;;;;;;;;;;;;;;;;;;;;;;;;;;;;;;;;;;;;;;;;;;;;;;;;;;;;;;;;;;;;;;;;;;;;;;;;;;;;;;;;;;;;;;;;;;;;;;;;;;;;;;;;;;;;;;;;;;;;;;;;;;;;;;;;;;;;;;;;;;;;;;;;;;;;;;;;;;;;;;;;;;;;;;;;;;;;;;;;;;;;;;;;;;;;;;;;;;;;;;;;;;;;;;;;;;;;;;;;;;;;;;;;;;;;;;;;;;;;;;;;;;;;;;;;;;;;;;;;
2010;[14264] NICOTRA E. (2010);samp. EL85;;ETNA/SICILY / ELLITTICO-MONGIBELLO TRANSITION SEQUENCE;PIANO DELLE CONCAZZE AREA, BETWEEN PIZZI DE NERI AND THE NORTH EAST CRATER;37.73;15;37.73;15;2790;2790;OUTCROP;;;SUBAERIAL;VOLCANIC ROCK;BENMOREITE;MESOPHYRIC, SERIATE;LAVA FLOW AT THE BOTTOM;15000;15000;PLEISTOCENE;;;;;;;MINERAL / COMPONENT (INCL. GROUNDMASS);PHLOGOPITE;;;;PRIMARY;;;;;41.1458;4.0064;;;;11.2877;0;;;;;;;;;8.7214;;;0;19.941;0.1664;;;;;;8.5288;EMP (EPMA);;;1.1887;;;;;;;;5.9522;0.1775;;;;;;;;;;;;;;;;;;;;;;;;;;;;;;;;;;;;;;;;;;;;;;;;;;;;;;;;;;;;;;;;;;;;;;;;;;;;;;;;;;;;;;;;;;;;;;;;;;;;;;;;;;;;;;;;;;;;;;;;;;;;;;;;;;;;;;;;;;;;;;;;;;;;;;;;;;;;;;;;;;;;;;;;;;;;;;;;;;;;;;;;;;;;;;;;;;;;;;;;;;;;;;;;;;;;;;;;;;;;;;;;;;;;;;;;;;;;;;;;;;;;;;;;;;;;;;;;;;;
2010;[14264] NICOTRA E. (2010);samp. EL85;;ETNA/SICILY / ELLITTICO-MONGIBELLO TRANSITION SEQUENCE;PIANO DELLE CONCAZZE AREA, BETWEEN PIZZI DE NERI AND THE NORTH EAST CRATER;37.73;15;37.73;15;2790;2790;OUTCROP;;;SUBAERIAL;VOLCANIC ROCK;BENMOREITE;MESOPHYRIC, SERIATE;LAVA FLOW AT THE BOTTOM;15000;15000;PLEISTOCENE;;;;;;;MINERAL / COMPONENT (INCL. GROUNDMASS);PHLOGOPITE;;;;PRIMARY;;;;;41.7752;4.0951;;;;11.1427;0;;;;;;;;;8.7457;;;0.0165;20.5139;0.1645;;;;;;8.8332;EMP (EPMA);;;1.3247;;;;;;;;6.7666;0.0663;;;;;;;;;;;;;;;;;;;;;;;;;;;;;;;;;;;;;;;;;;;;;;;;;;;;;;;;;;;;;;;;;;;;;;;;;;;;;;;;;;;;;;;;;;;;;;;;;;;;;;;;;;;;;;;;;;;;;;;;;;;;;;;;;;;;;;;;;;;;;;;;;;;;;;;;;;;;;;;;;;;;;;;;;;;;;;;;;;;;;;;;;;;;;;;;;;;;;;;;;;;;;;;;;;;;;;;;;;;;;;;;;;;;;;;;;;;;;;;;;;;;;;;;;;;;;;;;;;;
2010;[14264] NICOTRA E. (2010);samp. EL85;;ETNA/SICILY / ELLITTICO-MONGIBELLO TRANSITION SEQUENCE;PIANO DELLE CONCAZZE AREA, BETWEEN PIZZI DE NERI AND THE NORTH EAST CRATER;37.73;15;37.73;15;2790;2790;OUTCROP;;;SUBAERIAL;VOLCANIC ROCK;BENMOREITE;MESOPHYRIC, SERIATE;LAVA FLOW AT THE BOTTOM;15000;15000;PLEISTOCENE;;;;;;;MINERAL / COMPONENT (INCL. GROUNDMASS);PHLOGOPITE;;;;PRIMARY;;;;;41.316;4.0579;;;;11.337;0.0821;;;;;;;;;8.8999;;;0;20.7544;0.1887;;;;;;8.5914;EMP (EPMA);;;1.0963;;;;;;;;6.8274;0.0735;;;;;;;;;;;;;;;;;;;;;;;;;;;;;;;;;;;;;;;;;;;;;;;;;;;;;;;;;;;;;;;;;;;;;;;;;;;;;;;;;;;;;;;;;;;;;;;;;;;;;;;;;;;;;;;;;;;;;;;;;;;;;;;;;;;;;;;;;;;;;;;;;;;;;;;;;;;;;;;;;;;;;;;;;;;;;;;;;;;;;;;;;;;;;;;;;;;;;;;;;;;;;;;;;;;;;;;;;;;;;;;;;;;;;;;;;;;;;;;;;;;;;;;;;;;;;;;;;;;
2010;[14264] NICOTRA E. (2010);samp. EL85;;ETNA/SICILY / ELLITTICO-MONGIBELLO TRANSITION SEQUENCE;PIANO DELLE CONCAZZE AREA, BETWEEN PIZZI DE NERI AND THE NORTH EAST CRATER;37.73;15;37.73;15;2790;2790;OUTCROP;;;SUBAERIAL;VOLCANIC ROCK;BENMOREITE;MESOPHYRIC, SERIATE;LAVA FLOW AT THE BOTTOM;15000;15000;PLEISTOCENE;;;;;;;MINERAL / COMPONENT (INCL. GROUNDMASS);PHLOGOPITE;;;;PRIMARY;;;;;41.9245;4.0776;;;;11.0314;0.0696;;;;;;;;;8.4534;;;0;20.9474;0.1189;;;;;;8.791;EMP (EPMA);;;1.265;;;;;;;;6.524;0.0789;;;;;;;;;;;;;;;;;;;;;;;;;;;;;;;;;;;;;;;;;;;;;;;;;;;;;;;;;;;;;;;;;;;;;;;;;;;;;;;;;;;;;;;;;;;;;;;;;;;;;;;;;;;;;;;;;;;;;;;;;;;;;;;;;;;;;;;;;;;;;;;;;;;;;;;;;;;;;;;;;;;;;;;;;;;;;;;;;;;;;;;;;;;;;;;;;;;;;;;;;;;;;;;;;;;;;;;;;;;;;;;;;;;;;;;;;;;;;;;;;;;;;;;;;;;;;;;;;;;
2010;[14264] NICOTRA E. (2010);samp. EL85;;ETNA/SICILY / ELLITTICO-MONGIBELLO TRANSITION SEQUENCE;PIANO DELLE CONCAZZE AREA, BETWEEN PIZZI DE NERI AND THE NORTH EAST CRATER;37.73;15;37.73;15;2790;2790;OUTCROP;;;SUBAERIAL;VOLCANIC ROCK;BENMOREITE;MESOPHYRIC, SERIATE;LAVA FLOW AT THE BOTTOM;15000;15000;PLEISTOCENE;;;;;;;MINERAL / COMPONENT (INCL. GROUNDMASS);PHLOGOPITE;;;;PRIMARY;;;;;41.2145;4.2553;;;;11.4002;0.1074;;;;;;;;;8.9937;;;0.0137;20.0197;0.1532;;;;;;8.7816;EMP (EPMA);;;1.0742;;;;;;;;6.7108;0.0555;;;;;;;;;;;;;;;;;;;;;;;;;;;;;;;;;;;;;;;;;;;;;;;;;;;;;;;;;;;;;;;;;;;;;;;;;;;;;;;;;;;;;;;;;;;;;;;;;;;;;;;;;;;;;;;;;;;;;;;;;;;;;;;;;;;;;;;;;;;;;;;;;;;;;;;;;;;;;;;;;;;;;;;;;;;;;;;;;;;;;;;;;;;;;;;;;;;;;;;;;;;;;;;;;;;;;;;;;;;;;;;;;;;;;;;;;;;;;;;;;;;;;;;;;;;;;;;;;;;
2010;[14264] NICOTRA E. (2010);samp. EL85;;ETNA/SICILY / ELLITTICO-MONGIBELLO TRANSITION SEQUENCE;PIANO DELLE CONCAZZE AREA, BETWEEN PIZZI DE NERI AND THE NORTH EAST CRATER;37.73;15;37.73;15;2790;2790;OUTCROP;;;SUBAERIAL;VOLCANIC ROCK;BENMOREITE;MESOPHYRIC, SERIATE;LAVA FLOW AT THE BOTTOM;15000;15000;PLEISTOCENE;;;;;;;MINERAL / COMPONENT (INCL. GROUNDMASS);PHLOGOPITE;;;;PRIMARY;;;;;41.2247;3.9484;;;;11.0493;0.0189;;;;;;;;;9.1937;;;0.0124;19.8967;0.1217;;;;;;8.4995;EMP (EPMA);;;1.1507;;;;;;;;6.4078;0.0574;;;;;;;;;;;;;;;;;;;;;;;;;;;;;;;;;;;;;;;;;;;;;;;;;;;;;;;;;;;;;;;;;;;;;;;;;;;;;;;;;;;;;;;;;;;;;;;;;;;;;;;;;;;;;;;;;;;;;;;;;;;;;;;;;;;;;;;;;;;;;;;;;;;;;;;;;;;;;;;;;;;;;;;;;;;;;;;;;;;;;;;;;;;;;;;;;;;;;;;;;;;;;;;;;;;;;;;;;;;;;;;;;;;;;;;;;;;;;;;;;;;;;;;;;;;;;;;;;;;
2010;[14264] NICOTRA E. (2010);samp. EL85;;ETNA/SICILY / ELLITTICO-MONGIBELLO TRANSITION SEQUENCE;PIANO DELLE CONCAZZE AREA, BETWEEN PIZZI DE NERI AND THE NORTH EAST CRATER;37.73;15;37.73;15;2790;2790;OUTCROP;;;SUBAERIAL;VOLCANIC ROCK;BENMOREITE;MESOPHYRIC, SERIATE;LAVA FLOW AT THE BOTTOM;15000;15000;PLEISTOCENE;;;;;;;MINERAL / COMPONENT (INCL. GROUNDMASS);PHLOGOPITE;;;;PRIMARY;;;;;40.7645;4.3286;;;;11.7549;0;;;;;;;;;9.4574;;;0.0192;20.0216;0.0943;;;;;;8.7404;EMP (EPMA);;;1.0268;;;;;;;;5.8394;0.0824;;;;;;;;;;;;;;;;;;;;;;;;;;;;;;;;;;;;;;;;;;;;;;;;;;;;;;;;;;;;;;;;;;;;;;;;;;;;;;;;;;;;;;;;;;;;;;;;;;;;;;;;;;;;;;;;;;;;;;;;;;;;;;;;;;;;;;;;;;;;;;;;;;;;;;;;;;;;;;;;;;;;;;;;;;;;;;;;;;;;;;;;;;;;;;;;;;;;;;;;;;;;;;;;;;;;;;;;;;;;;;;;;;;;;;;;;;;;;;;;;;;;;;;;;;;;;;;;;;;
2010;[14264] NICOTRA E. (2010);samp. EL85;;ETNA/SICILY / ELLITTICO-MONGIBELLO TRANSITION SEQUENCE;PIANO DELLE CONCAZZE AREA, BETWEEN PIZZI DE NERI AND THE NORTH EAST CRATER;37.73;15;37.73;15;2790;2790;OUTCROP;;;SUBAERIAL;VOLCANIC ROCK;BENMOREITE;MESOPHYRIC, SERIATE;LAVA FLOW AT THE BOTTOM;15000;15000;PLEISTOCENE;;;;;;;MINERAL / COMPONENT (INCL. GROUNDMASS);PHLOGOPITE;;;;PRIMARY;;;;;41.687;4.3065;;;;11.2591;0;;;;;;;;;8.895;;;0.0165;20.5193;0.0619;;;;;;8.9598;EMP (EPMA);;;0.9398;;;;;;;;5.1821;0.07;;;;;;;;;;;;;;;;;;;;;;;;;;;;;;;;;;;;;;;;;;;;;;;;;;;;;;;;;;;;;;;;;;;;;;;;;;;;;;;;;;;;;;;;;;;;;;;;;;;;;;;;;;;;;;;;;;;;;;;;;;;;;;;;;;;;;;;;;;;;;;;;;;;;;;;;;;;;;;;;;;;;;;;;;;;;;;;;;;;;;;;;;;;;;;;;;;;;;;;;;;;;;;;;;;;;;;;;;;;;;;;;;;;;;;;;;;;;;;;;;;;;;;;;;;;;;;;;;;;
2010;[14264] NICOTRA E. (2010);samp. EL85;;ETNA/SICILY / ELLITTICO-MONGIBELLO TRANSITION SEQUENCE;PIANO DELLE CONCAZZE AREA, BETWEEN PIZZI DE NERI AND THE NORTH EAST CRATER;37.73;15;37.73;15;2790;2790;OUTCROP;;;SUBAERIAL;VOLCANIC ROCK;BENMOREITE;MESOPHYRIC, SERIATE;LAVA FLOW AT THE BOTTOM;15000;15000;PLEISTOCENE;;;;;;;MINERAL / COMPONENT (INCL. GROUNDMASS);PHLOGOPITE;;;;PRIMARY;;;;;42.1067;4.0605;;;;10.9326;0.0253;;;;;;;;;8.7371;;;0;20.4966;0.1442;;;;;;8.7088;EMP (EPMA);;;1.0663;;;;;;;;6.5987;0.0699;;;;;;;;;;;;;;;;;;;;;;;;;;;;;;;;;;;;;;;;;;;;;;;;;;;;;;;;;;;;;;;;;;;;;;;;;;;;;;;;;;;;;;;;;;;;;;;;;;;;;;;;;;;;;;;;;;;;;;;;;;;;;;;;;;;;;;;;;;;;;;;;;;;;;;;;;;;;;;;;;;;;;;;;;;;;;;;;;;;;;;;;;;;;;;;;;;;;;;;;;;;;;;;;;;;;;;;;;;;;;;;;;;;;;;;;;;;;;;;;;;;;;;;;;;;;;;;;;;;
2010;[14264] NICOTRA E. (2010);samp. EL85;;ETNA/SICILY / ELLITTICO-MONGIBELLO TRANSITION SEQUENCE;PIANO DELLE CONCAZZE AREA, BETWEEN PIZZI DE NERI AND THE NORTH EAST CRATER;37.73;15;37.73;15;2790;2790;OUTCROP;;;SUBAERIAL;VOLCANIC ROCK;BENMOREITE;MESOPHYRIC, SERIATE;LAVA FLOW AT THE BOTTOM;15000;15000;PLEISTOCENE;;;;;;;MINERAL / COMPONENT (INCL. GROUNDMASS);PHLOGOPITE;;;;PRIMARY;;;;;41.1222;4.3784;;;;11.4899;0.0126;;;;;;;;;9.0639;;;0.011;20.226;0.1248;;;;;;8.76;EMP (EPMA);;;1.0445;;;;;;;;6.0496;0.086;;;;;;;;;;;;;;;;;;;;;;;;;;;;;;;;;;;;;;;;;;;;;;;;;;;;;;;;;;;;;;;;;;;;;;;;;;;;;;;;;;;;;;;;;;;;;;;;;;;;;;;;;;;;;;;;;;;;;;;;;;;;;;;;;;;;;;;;;;;;;;;;;;;;;;;;;;;;;;;;;;;;;;;;;;;;;;;;;;;;;;;;;;;;;;;;;;;;;;;;;;;;;;;;;;;;;;;;;;;;;;;;;;;;;;;;;;;;;;;;;;;;;;;;;;;;;;;;;;;
2010;[14264] NICOTRA E. (2010);samp. EL85;;ETNA/SICILY / ELLITTICO-MONGIBELLO TRANSITION SEQUENCE;PIANO DELLE CONCAZZE AREA, BETWEEN PIZZI DE NERI AND THE NORTH EAST CRATER;37.73;15;37.73;15;2790;2790;OUTCROP;;;SUBAERIAL;VOLCANIC ROCK;BENMOREITE;MESOPHYRIC, SERIATE;LAVA FLOW AT THE BOTTOM;15000;15000;PLEISTOCENE;;;;;;;MINERAL / COMPONENT (INCL. GROUNDMASS);PHLOGOPITE;;;;PRIMARY;;;;;41.6463;4.1946;;;;11.1563;0.0379;;;;;;;;;9.2744;;;0.0082;20.4025;0.14;;;;;;8.8775;EMP (EPMA);;;1.132;;;;;;;;6.1645;0.0932;;;;;;;;;;;;;;;;;;;;;;;;;;;;;;;;;;;;;;;;;;;;;;;;;;;;;;;;;;;;;;;;;;;;;;;;;;;;;;;;;;;;;;;;;;;;;;;;;;;;;;;;;;;;;;;;;;;;;;;;;;;;;;;;;;;;;;;;;;;;;;;;;;;;;;;;;;;;;;;;;;;;;;;;;;;;;;;;;;;;;;;;;;;;;;;;;;;;;;;;;;;;;;;;;;;;;;;;;;;;;;;;;;;;;;;;;;;;;;;;;;;;;;;;;;;;;;;;;;;
2010;[14264] NICOTRA E. (2010);samp. EL85;;ETNA/SICILY / ELLITTICO-MONGIBELLO TRANSITION SEQUENCE;PIANO DELLE CONCAZZE AREA, BETWEEN PIZZI DE NERI AND THE NORTH EAST CRATER;37.73;15;37.73;15;2790;2790;OUTCROP;;;SUBAERIAL;VOLCANIC ROCK;BENMOREITE;MESOPHYRIC, SERIATE;LAVA FLOW AT THE BOTTOM;15000;15000;PLEISTOCENE;;;;;;;MINERAL / COMPONENT (INCL. GROUNDMASS);PHLOGOPITE;;;;PRIMARY;;;;;41.4999;4.0612;;;;11.0668;0.0695;;;;;;;;;8.9781;;;0.0344;20.416;0.1705;;;;;;8.6405;EMP (EPMA);;;1.197;;;;;;;;6.4224;0.0412;;;;;;;;;;;;;;;;;;;;;;;;;;;;;;;;;;;;;;;;;;;;;;;;;;;;;;;;;;;;;;;;;;;;;;;;;;;;;;;;;;;;;;;;;;;;;;;;;;;;;;;;;;;;;;;;;;;;;;;;;;;;;;;;;;;;;;;;;;;;;;;;;;;;;;;;;;;;;;;;;;;;;;;;;;;;;;;;;;;;;;;;;;;;;;;;;;;;;;;;;;;;;;;;;;;;;;;;;;;;;;;;;;;;;;;;;;;;;;;;;;;;;;;;;;;;;;;;;;;
2010;[14264] NICOTRA E. (2010);samp. EL85;;ETNA/SICILY / ELLITTICO-MONGIBELLO TRANSITION SEQUENCE;PIANO DELLE CONCAZZE AREA, BETWEEN PIZZI DE NERI AND THE NORTH EAST CRATER;37.73;15;37.73;15;2790;2790;OUTCROP;;;SUBAERIAL;VOLCANIC ROCK;BENMOREITE;MESOPHYRIC, SERIATE;LAVA FLOW AT THE BOTTOM;15000;15000;PLEISTOCENE;;;;;;;MINERAL / COMPONENT (INCL. GROUNDMASS);PHLOGOPITE;;;;PRIMARY;;;;;41.3257;4.5099;;;;11.0131;0;;;;;;;;;8.8282;;;0;19.907;0.1127;;;;;;8.597;EMP (EPMA);;;1.217;;;;;;;;6.0827;0.0789;;;;;;;;;;;;;;;;;;;;;;;;;;;;;;;;;;;;;;;;;;;;;;;;;;;;;;;;;;;;;;;;;;;;;;;;;;;;;;;;;;;;;;;;;;;;;;;;;;;;;;;;;;;;;;;;;;;;;;;;;;;;;;;;;;;;;;;;;;;;;;;;;;;;;;;;;;;;;;;;;;;;;;;;;;;;;;;;;;;;;;;;;;;;;;;;;;;;;;;;;;;;;;;;;;;;;;;;;;;;;;;;;;;;;;;;;;;;;;;;;;;;;;;;;;;;;;;;;;;
2010;[14264] NICOTRA E. (2010);samp. EL85;;ETNA/SICILY / ELLITTICO-MONGIBELLO TRANSITION SEQUENCE;PIANO DELLE CONCAZZE AREA, BETWEEN PIZZI DE NERI AND THE NORTH EAST CRATER;37.73;15;37.73;15;2790;2790;OUTCROP;;;SUBAERIAL;VOLCANIC ROCK;BENMOREITE;MESOPHYRIC, SERIATE;LAVA FLOW AT THE BOTTOM;15000;15000;PLEISTOCENE;;;;;;;MINERAL / COMPONENT (INCL. GROUNDMASS);PHLOGOPITE;;;;PRIMARY;;;;;41.4042;4.2713;;;;10.9314;0.0063;;;;;;;;;8.7058;;;0;20.1669;0.2264;;;;;;8.5007;EMP (EPMA);;;1.2166;;;;;;;;6.7359;0.0627;;;;;;;;;;;;;;;;;;;;;;;;;;;;;;;;;;;;;;;;;;;;;;;;;;;;;;;;;;;;;;;;;;;;;;;;;;;;;;;;;;;;;;;;;;;;;;;;;;;;;;;;;;;;;;;;;;;;;;;;;;;;;;;;;;;;;;;;;;;;;;;;;;;;;;;;;;;;;;;;;;;;;;;;;;;;;;;;;;;;;;;;;;;;;;;;;;;;;;;;;;;;;;;;;;;;;;;;;;;;;;;;;;;;;;;;;;;;;;;;;;;;;;;;;;;;;;;;;;;
2010;[14264] NICOTRA E. (2010);samp. EL85;;ETNA/SICILY / ELLITTICO-MONGIBELLO TRANSITION SEQUENCE;PIANO DELLE CONCAZZE AREA, BETWEEN PIZZI DE NERI AND THE NORTH EAST CRATER;37.73;15;37.73;15;2790;2790;OUTCROP;;;SUBAERIAL;VOLCANIC ROCK;BENMOREITE;MESOPHYRIC, SERIATE;LAVA FLOW AT THE BOTTOM;15000;15000;PLEISTOCENE;;;;;;;MINERAL / COMPONENT (INCL. GROUNDMASS);PHLOGOPITE;;;;PRIMARY;;;;;41.3215;4.0329;;;;11.354;0.038;;;;;;;;;8.3198;;;0.0262;20.7893;0.1686;;;;;;9.2458;EMP (EPMA);;;0.7431;;;;;;;;5.9098;0.0968;;;;;;;;;;;;;;;;;;;;;;;;;;;;;;;;;;;;;;;;;;;;;;;;;;;;;;;;;;;;;;;;;;;;;;;;;;;;;;;;;;;;;;;;;;;;;;;;;;;;;;;;;;;;;;;;;;;;;;;;;;;;;;;;;;;;;;;;;;;;;;;;;;;;;;;;;;;;;;;;;;;;;;;;;;;;;;;;;;;;;;;;;;;;;;;;;;;;;;;;;;;;;;;;;;;;;;;;;;;;;;;;;;;;;;;;;;;;;;;;;;;;;;;;;;;;;;;;;;;
2010;[14264] NICOTRA E. (2010);samp. EL85;;ETNA/SICILY / ELLITTICO-MONGIBELLO TRANSITION SEQUENCE;PIANO DELLE CONCAZZE AREA, BETWEEN PIZZI DE NERI AND THE NORTH EAST CRATER;37.73;15;37.73;15;2790;2790;OUTCROP;;;SUBAERIAL;VOLCANIC ROCK;BENMOREITE;MESOPHYRIC, SERIATE;LAVA FLOW AT THE BOTTOM;15000;15000;PLEISTOCENE;;;;;;;MINERAL / COMPONENT (INCL. GROUNDMASS);PHLOGOPITE;;;;PRIMARY;;;;;41.4902;4.3355;;;;11.5133;0.0189;;;;;;;;;9.1983;;;0.022;20.2467;0.2607;;;;;;8.6647;EMP (EPMA);;;1.0144;;;;;;;;6.1968;0.0556;;;;;;;;;;;;;;;;;;;;;;;;;;;;;;;;;;;;;;;;;;;;;;;;;;;;;;;;;;;;;;;;;;;;;;;;;;;;;;;;;;;;;;;;;;;;;;;;;;;;;;;;;;;;;;;;;;;;;;;;;;;;;;;;;;;;;;;;;;;;;;;;;;;;;;;;;;;;;;;;;;;;;;;;;;;;;;;;;;;;;;;;;;;;;;;;;;;;;;;;;;;;;;;;;;;;;;;;;;;;;;;;;;;;;;;;;;;;;;;;;;;;;;;;;;;;;;;;;;;
2010;[14264] NICOTRA E. (2010);samp. EL85;;ETNA/SICILY / ELLITTICO-MONGIBELLO TRANSITION SEQUENCE;PIANO DELLE CONCAZZE AREA, BETWEEN PIZZI DE NERI AND THE NORTH EAST CRATER;37.73;15;37.73;15;2790;2790;OUTCROP;;;SUBAERIAL;VOLCANIC ROCK;BENMOREITE;MESOPHYRIC, SERIATE;LAVA FLOW AT THE BOTTOM;15000;15000;PLEISTOCENE;;;;;;;MINERAL / COMPONENT (INCL. GROUNDMASS);PHLOGOPITE;;;;PRIMARY;;;;;41.5001;4.2364;;;;10.9369;0;;;;;;;;;8.7397;;;0.011;19.9828;0.2416;;;;;;8.7655;EMP (EPMA);;;1.1373;;;;;;;;6.1293;0.095;;;;;;;;;;;;;;;;;;;;;;;;;;;;;;;;;;;;;;;;;;;;;;;;;;;;;;;;;;;;;;;;;;;;;;;;;;;;;;;;;;;;;;;;;;;;;;;;;;;;;;;;;;;;;;;;;;;;;;;;;;;;;;;;;;;;;;;;;;;;;;;;;;;;;;;;;;;;;;;;;;;;;;;;;;;;;;;;;;;;;;;;;;;;;;;;;;;;;;;;;;;;;;;;;;;;;;;;;;;;;;;;;;;;;;;;;;;;;;;;;;;;;;;;;;;;;;;;;;;
2010;[14264] NICOTRA E. (2010);samp. EL85;;ETNA/SICILY / ELLITTICO-MONGIBELLO TRANSITION SEQUENCE;PIANO DELLE CONCAZZE AREA, BETWEEN PIZZI DE NERI AND THE NORTH EAST CRATER;37.73;15;37.73;15;2790;2790;OUTCROP;;;SUBAERIAL;VOLCANIC ROCK;BENMOREITE;MESOPHYRIC, SERIATE;LAVA FLOW AT THE BOTTOM;15000;15000;PLEISTOCENE;;;;;;;MINERAL / COMPONENT (INCL. GROUNDMASS);PHLOGOPITE;;;;PRIMARY;;;;;41.3033;4.2509;;;;11.1803;0.0443;;;;;;;;;8.0433;;;0.0275;20.6949;0.1657;;;;;;9.0658;EMP (EPMA);;;0.9619;;;;;;;;6.6883;0.0914;;;;;;;;;;;;;;;;;;;;;;;;;;;;;;;;;;;;;;;;;;;;;;;;;;;;;;;;;;;;;;;;;;;;;;;;;;;;;;;;;;;;;;;;;;;;;;;;;;;;;;;;;;;;;;;;;;;;;;;;;;;;;;;;;;;;;;;;;;;;;;;;;;;;;;;;;;;;;;;;;;;;;;;;;;;;;;;;;;;;;;;;;;;;;;;;;;;;;;;;;;;;;;;;;;;;;;;;;;;;;;;;;;;;;;;;;;;;;;;;;;;;;;;;;;;;;;;;;;;
2010;[14264] NICOTRA E. (2010);samp. EL85;;ETNA/SICILY / ELLITTICO-MONGIBELLO TRANSITION SEQUENCE;PIANO DELLE CONCAZZE AREA, BETWEEN PIZZI DE NERI AND THE NORTH EAST CRATER;37.73;15;37.73;15;2790;2790;OUTCROP;;;SUBAERIAL;VOLCANIC ROCK;BENMOREITE;MESOPHYRIC, SERIATE;LAVA FLOW AT THE BOTTOM;15000;15000;PLEISTOCENE;;;;;;;MINERAL / COMPONENT (INCL. GROUNDMASS);PHLOGOPITE;;;;PRIMARY;;;;;41.5744;4.1129;;;;11.2282;0;;;;;;;;;8.5986;;;0.0069;20.4188;0.0589;;;;;;8.7577;EMP (EPMA);;;1.0879;;;;;;;;5.928;0.07;;;;;;;;;;;;;;;;;;;;;;;;;;;;;;;;;;;;;;;;;;;;;;;;;;;;;;;;;;;;;;;;;;;;;;;;;;;;;;;;;;;;;;;;;;;;;;;;;;;;;;;;;;;;;;;;;;;;;;;;;;;;;;;;;;;;;;;;;;;;;;;;;;;;;;;;;;;;;;;;;;;;;;;;;;;;;;;;;;;;;;;;;;;;;;;;;;;;;;;;;;;;;;;;;;;;;;;;;;;;;;;;;;;;;;;;;;;;;;;;;;;;;;;;;;;;;;;;;;;
2010;[14264] NICOTRA E. (2010);samp. EL85;;ETNA/SICILY / ELLITTICO-MONGIBELLO TRANSITION SEQUENCE;PIANO DELLE CONCAZZE AREA, BETWEEN PIZZI DE NERI AND THE NORTH EAST CRATER;37.73;15;37.73;15;2790;2790;OUTCROP;;;SUBAERIAL;VOLCANIC ROCK;BENMOREITE;MESOPHYRIC, SERIATE;LAVA FLOW AT THE BOTTOM;15000;15000;PLEISTOCENE;;;;;;;MINERAL / COMPONENT (INCL. GROUNDMASS);PHLOGOPITE;;;;PRIMARY;;;;;41.4631;4.2126;;;;10.8562;0;;;;;;;;;8.8003;;;0;20.421;0.1514;;;;;;8.5994;EMP (EPMA);;;1.1278;;;;;;;;7.0464;0.0628;;;;;;;;;;;;;;;;;;;;;;;;;;;;;;;;;;;;;;;;;;;;;;;;;;;;;;;;;;;;;;;;;;;;;;;;;;;;;;;;;;;;;;;;;;;;;;;;;;;;;;;;;;;;;;;;;;;;;;;;;;;;;;;;;;;;;;;;;;;;;;;;;;;;;;;;;;;;;;;;;;;;;;;;;;;;;;;;;;;;;;;;;;;;;;;;;;;;;;;;;;;;;;;;;;;;;;;;;;;;;;;;;;;;;;;;;;;;;;;;;;;;;;;;;;;;;;;;;;;