Year;CITATION;SAMPLE NAME;UNIQUE_ID;LOCATION;LOCATION COMMENT;LATITUDE (MIN.);LONGITUDE (MIN.);LATITUDE (MAX.);LONGITUDE (MAX.);ELEVATION (MIN.);ELEVATION (MAX.);SAMPLING TECHNIQUE;DRILLING DEPTH (MIN.);DRILLING DEPTH (MAX.);LAND/SEA (SAMPLING);ROCK TYPE;ROCK NAME;ROCK TEXTURE;SAMPLE COMMENT;AGE (MIN.);AGE (MAX.);GEOLOGICAL AGE;GEOLOGICAL AGE PREFIX;ERUPTION DAY;ERUPTION MONTH;ERUPTION YEAR;ALTERATION;ALTERATION TYPE;TYPE OF MATERIAL;MINERAL / COMPONENT;SPOT (MINERAL);CRYSTAL;RIM / CORE (MINERAL GRAINS);PRIMARY/SECONDARY;INCLUSION TYPE;MINERAL (INCLUSION);HOSTMINERAL (INCLUSION);HEATING;SIO2(WT%);TIO2(WT%);ZRO2(WT%);HFO2(WT%);THO2(WT%);AL2O3(WT%);CR2O3(WT%);LA2O3(WT%);CE2O3(WT%);ND2O3(WT%);SM2O3(WT%);V2O3(WT%);NB2O5(WT%);FE2O3T(WT%);FE2O3(WT%);FEOT(WT%);FEO(WT%);FET(WT%);CAO(WT%);MGO(WT%);MNO(WT%);BAO(WT%);SRO(WT%);NIO(WT%);ZNO(WT%);RB2O(WT%);K2O(WT%);;;;NA2O(WT%);P2O5(WT%);AS2O5(WT%);H2O(WT%);H2OP(WT%);H2OM(WT%);CO2(WT%);C(WT%);F(WT%);CL(WT%);OH(WT%);SO3(WT%);S(WT%);LOI(WT%);TI(WT%);CA(WT%);K(WT%);LI(PPM);BE(PPM);B(PPM);F(PPM);P(PPM);S(PPM);CL(PPM);AR40(AT/G);;;;AR40(CCMSTP/G);;;;AR40(MOL/G);;;;AR40(PPB);K(PPM);SC(PPM);;;;TI(PPM);V(PPM);;;;CR(PPM);;;;CO(PPM);;;;NI(PPM);;;;CU(PPM);;;;ZN(PPM);;;;GA(PPM);;;;GE(PPM);AS(PPM);AS(PPB);SE(PPM);RB(PPM);;;;;;SR(PPM);;;;;;Y(PPM);;;;ZR(PPM);;;;NB(PPM);;;;MO(PPM);AG(PPM);CD(PPM);IN(PPM);SN(PPM);SB(PPM): altern. values or methods;;;;TE(PPM);CS(PPM): altern. values or methods;;;;BA(PPM): altern. values or methods;;;;LA(PPM): altern. values or methods;;;;CE(PPM): altern. values or methods;;;;PR(PPM);ND(PPM): altern. values or methods;;;;;;SM(PPM): altern. values or methods;;;;EU(PPM): altern. values or methods;;;;GD(PPM): altern. values or methods;;;;TB(PPM): altern. values or methods;;;;DY(PPM): altern. values or methods;;;;HO(PPM);ER(PPM): altern. values or methods;;;;TM(PPM);YB(PPM): altern. values or methods;;;;LU(PPM);HF(PPM);TA(PPM);W(PPM);RE(PPM);AU(PPM);HG(PPM);HG(PPB);TL(PPM);PB(PPM): altern. values or methods;;;;BI(PPM);PO210_ACT(DPM/G);RA226_ACT(DPM/G);TH(PPM): altern. values or methods;;;;U(PPM): altern. values or methods;;;;ND143_ND144;ND143_ND144_INI;EPSILON_ND;EPSILON_ND_INI;SM147_ND144;SR87_SR86;SR87_SR86_INI;EPSILON_SR_INI;RB87_SR86;PB206_PB204: altern. values or methods;;;;PB206_PB204_INI;PB207_PB204: altern. values or methods;;;;PB207_PB204_INI;PB207_PB206;PB208_PB204: altern. values or methods;;;;PB208_PB204_INI;PB208_PB206;HF176_HF177;LU176_HF177;AR38_AR36;AR40_AR36;AR40_AR36_INI;PB206_U238;PB207_U235;RA226_TH230_ACT;PA231_U235_ACT;TH230_TH232_ACT;TH230_U238_ACT;TH232_PB204;U234_U238_ACT;U235_PB204;U238_PB204;U238_TH232_ACT;D7LI(VS LSVEC);D13C(VS PDB);D18O(PER MIL);D18O(VS SMOW);D18O(VS VSMOW);D34S(VS VCDT);ALBITE(MOL%);ANORTHITE(MOL%);CA OLIVINE(MOL%);CHROMITE(MOL%);ENSTATITE(MOL%);FAYALITE(MOL%);FORSTERITE(MOL%);FERROSILITE(MOL%);HEMATITE(MOL%);HERCYNITE(MOL%);ILMENITE(MOL%);MAGNESIOFERRITE(MOL%);MONTICELLITE(MOL%);MAGNETITE(MOL%);ORTHOCLASE(MOL%);PICROCHROMITE(MOL%);SPINEL(MOL%);TEPHROITE(MOL%);ULVOSPINEL(MOL%);WOLLASTONITE(MOL%);AGE(KA): altern. values or methods;;;;;;AGE(MA): altern. values or methods;;;;;;AGE_PB207_U235(MA);AGE_PB206_U238(MA);
1980;[2929] BROTZU P. (1980);samp. 169;;EAST AFRICAN RIFT / ETHIOPIAN RIFT / MAIN ETHIOPIAN RIFT / BOSETI VOLCANIC COMPLEX;;8.62;39.52;8.62;39.52;;;OUTCROP;;;SUBAERIAL;VOLCANIC ROCK;BENMOREITE;;LOW-AL;;;QUATERNARY;;;;;;;WHOLE ROCK;;;;;;;;;;;;;;;;;;;;;;;;;;;;;;;;;;;;;;;;;;;;;;;;;;;;;;;;;;;;;;;;;;;;;;;;;;;;;;;;;;;;;;;18;XRF;;;;;;;13;XRF;;;;;;;;;;;;;;;;;;;30;XRF;;;;;456;XRF;;;;;;;;;380;XRF;;;;;;;;;;;;;;;;;;;;;765;XRF;;;40;XRF;;;81;XRF;;;;;;;;;;;;;;;;;;;;;;;;;;;;;;;;;;;;;;;;;;;;;;;;;;;;;;;;;;;;;;;;;;;;;;;;;;;;;;;;;;;;;;;;;;;;;;;;;;;;;;;;;;;;;;;;;;;;;;;;;;;;;;;;;;;;;;;;;;;;;;;;;;
1980;[2929] BROTZU P. (1980);samp. 195;;EAST AFRICAN RIFT / ETHIOPIAN RIFT / MAIN ETHIOPIAN RIFT / BOSETI VOLCANIC COMPLEX;;8.62;39.52;8.62;39.52;;;OUTCROP;;;SUBAERIAL;VOLCANIC ROCK;BENMOREITE;;LOW-AL;;;QUATERNARY;;;;;;;WHOLE ROCK;;;;;;;;;;;;;;;;;;;;;;;;;;;;;;;;;;;;;;;;;;;;;;;;;;;;;;;;;;;;;;;;;;;;;;;;;;;;;;;;;;;;;;;19;XRF;;;;;;;12;XRF;;;;;;;;;;;;;;;;;;;18;XRF;;;;;419;XRF;;;;;;;;;300;XRF;;;;;;;;;;;;;;;;;;;;;705;XRF;;;33;XRF;;;67;XRF;;;;;;;;;;;;;;;;;;;;;;;;;;;;;;;;;;;;;;;;;;;;;;;;;;;;;;;;;;;;;;;;;;;;;;;;;;;;;;;;;;;;;;;;;;;;;;;;;;;;;;;;;;;;;;;;;;;;;;;;;;;;;;;;;;;;;;;;;;;;;;;;;;
1972;[3002] THOMPSON R. N. (1972);samp. 170;;NORTH ATLANTIC IGNEOUS PROVINCE (NAIP) / BRITISH TERTIARY VOLCANIC PROVINCE / SKYE MAIN LAVA SERIES;SKYE, BRACADALE GROUP, VIDIGILL BURN, 4 KM SE OF BRACADALE;57.3667;-6.4;57.3667;-6.4;;;OUTCROP;;;SUBAERIAL;VOLCANIC ROCK;BENMOREITE;;;;;CENOZOIC;;;;;;;WHOLE ROCK;;;;;;;;;;55.73;1.09;;;;17.22;;;;;;;;;2.5;;7.03;;4.03;2.13;0.25;;;;;;3.11;XRF;;;5.8;0.76;;;1.16;;;;;;;;;;;;;;;;;;;;;;;;;;;;;;;;;;;;;;;;;;;;;;;;;;;;;;;;;;;;;;;;;;;;;;;;;;;;;;;;;;;;;;;;;;;;;;;;;;;;;;;;;;;;;;;;;;;;;;;;;;;;;;;;;;;;;;;;;;;;;;;;;;;;;;;;;;;;;;;;;;;;;;;;;;;;;;;;;;;;;;;;;;;;;;;;;;;;;;;;;;;;;;;;;;;;;;;;;;;;;;;;;;;;;;;;;;;;;;;;;;;;;;;;;;;;;;;;;;;;;;;;
1972;[3002] THOMPSON R. N. (1972);samp. 916;47655;NORTH ATLANTIC IGNEOUS PROVINCE (NAIP) / BRITISH TERTIARY VOLCANIC PROVINCE / SKYE MAIN LAVA SERIES;SKYE, BRACADALE GROUP, STREAM RUNNING NNW FROM STRUAN, BRACADALE;57.3667;-6.4;57.3667;-6.4;;;OUTCROP;;;SUBAERIAL;VOLCANIC ROCK;BENMOREITE;;;;;CENOZOIC;;;;;;;WHOLE ROCK;;;;;;;;;;58.31;0.87;;;;16.26;;;;;;;;;2.5;;4.1;;3.34;1.93;0.18;;;;;;3.89;XRF;;;5.54;0.68;;;1.03;;;;;;;;;;;;;;;;;;;;;;;;;;;;;;;;;;;;;;;;;;;;;;;;;;;;;;;;;;;;;;;;;;;;;;;;;;;;;;;;;;;;;;;;;;;;;;;;;;;;;;;;;;;;;;;;;;;;;;;;;;;;;;;;;;;;;;;;;;;;;;;;;;;;;;;;;;;;;;;;;;;;;;;;;;;;;;;;;;;;;;;;;;;;;;;;;;;;;;;;;;;;;;;;;;;;;;;;;;;;;;;;;;;;;;;;;;;;;;;;;;;;;;;;;;;;;;;;;;;;;;;;
1972;[3002] THOMPSON R. N. (1972);samp. 911;47644;NORTH ATLANTIC IGNEOUS PROVINCE (NAIP) / BRITISH TERTIARY VOLCANIC PROVINCE / SKYE MAIN LAVA SERIES;SKYE, BRACADALE GROUP, SLOPE BELOW TOTARDOR, BRACADALE;57.3667;-6.4;57.3667;-6.4;;;OUTCROP;;;SUBAERIAL;VOLCANIC ROCK;BENMOREITE;;;;;CENOZOIC;;;;;;;WHOLE ROCK;;;;;;;;;;57.61;0.93;;;;16.81;;;;;;;;;2.5;;7.21;;2.93;1.2;0.19;;;;;;3.48;XRF;;;6.03;0.58;;;1.54;;;;;;;;;;;;;;;;;;;;;;;;;;;;;;;;;;;;;;;;;;;;;;;;;;;;;;;;;;;;;;;;;;;;;;;;;;;;;;;;;;;;;;;;;;;;;;;;;;;;;;;;;;;;;;;;;;;;;;;;;;;;;;;;;;;;;;;;;;;;;;;;;;;;;;;;;;;;;;;;;;;;;;;;;;;;;;;;;;;;;;;;;;;;;;;;;;;;;;;;;;;;;;;;;;;;;;;;;;;;;;;;;;;;;;;;;;;;;;;;;;;;;;;;;;;;;;;;;;;;;;;;
1972;[3002] THOMPSON R. N. (1972);samp. 986;47645;NORTH ATLANTIC IGNEOUS PROVINCE (NAIP) / BRITISH TERTIARY VOLCANIC PROVINCE / SKYE MAIN LAVA SERIES;SKYE, BRACADALE GROUP, ROADSIDE ON A863 AT COILLORE, BRACADALE;57.3667;-6.4;57.3667;-6.4;;;OUTCROP;;;SUBAERIAL;VOLCANIC ROCK;BENMOREITE;;;;;CENOZOIC;;;;;;;WHOLE ROCK;;;;;;;;;;58.18;0.81;;;;16.49;;;;;;;;;5.64;;2.75;;2.88;0.94;0.28;;;;;;3.48;WET;;;5.98;0.66;;;1.34;;0.09;;;;;;;;;;;;;;;;;;;;;;;;;;;;;;;;;;;;;;;;;;;;;;;;;;;;;;;;;;;;;;;;;;;;;;;;;;;;;;;;;;;;;;;;;;;;;;;;;;;;;;;;;;;;;;;;;;;;;;;;;;;;;;;;;;;;;;;;;;;;;;;;;;;;;;;;;;;;;;;;;;;;;;;;;;;;;;;;;;;;;;;;;;;;;;;;;;;;;;;;;;;;;;;;;;;;;;;;;;;;;;;;;;;;;;;;;;;;;;;;;;;;;;;;;;;;;;;;;;;;;;
1972;[3002] THOMPSON R. N. (1972);samp. 910;47643;NORTH ATLANTIC IGNEOUS PROVINCE (NAIP) / BRITISH TERTIARY VOLCANIC PROVINCE / SKYE MAIN LAVA SERIES;SKYE, BRACADALE GROUP, SLOPE BELOW TOTARDOR, BRACADALE;57.3667;-6.4;57.3667;-6.4;;;OUTCROP;;;SUBAERIAL;VOLCANIC ROCK;BENMOREITE;;;;;CENOZOIC;;;;;;;WHOLE ROCK;;;;;;;;;;56.26;1.09;;;;16.16;;;;;;;;;2.5;;8.3;;2.85;1.43;0.1;;;;;;3.74;XRF;;;6.5;0.72;;;1.66;;;;;;;;;;;;;;;;;;;;;;;;;;;;;;;;;;;;;;;;;;;;;;;;;;;;;;;;;;;;;;;;;;;;;;;;;;;;;;;;;;;;;;;;;;;;;;;;;;;;;;;;;;;;;;;;;;;;;;;;;;;;;;;;;;;;;;;;;;;;;;;;;;;;;;;;;;;;;;;;;;;;;;;;;;;;;;;;;;;;;;;;;;;;;;;;;;;;;;;;;;;;;;;;;;;;;;;;;;;;;;;;;;;;;;;;;;;;;;;;;;;;;;;;;;;;;;;;;;;;;;;;
1972;[3002] THOMPSON R. N. (1972);samp. 920;;NORTH ATLANTIC IGNEOUS PROVINCE (NAIP) / BRITISH TERTIARY VOLCANIC PROVINCE / SKYE MAIN LAVA SERIES;SKYE, BRACADALE GROUP, ROADSIDE ON B885 AT DUN GARSIN, BRACADALE;57.3667;-6.4;57.3667;-6.4;;;OUTCROP;;;SUBAERIAL;VOLCANIC ROCK;BENMOREITE;;;;;CENOZOIC;;;;;;;WHOLE ROCK;;;;;;;;;;57.11;1.03;;;;15.81;;;;;;;;9.73;;;;;2.97;1.48;0.2;;;;;;3.47;XRF;;;5.96;0.69;;;;;;;;;;;;;;;;;;;;;;;;;;;;;;;;;;;;;;;;;;;;;;;;;;;;;;;;;;;;;;;;;;;;;;;;;;;;;;;;;;;;;;;;;;;;;;;;;;;;;;;;;;;;;;;;;;;;;;;;;;;;;;;;;;;;;;;;;;;;;;;;;;;;;;;;;;;;;;;;;;;;;;;;;;;;;;;;;;;;;;;;;;;;;;;;;;;;;;;;;;;;;;;;;;;;;;;;;;;;;;;;;;;;;;;;;;;;;;;;;;;;;;;;;;;;;;;;;;;;;;;;;;;
2000;[3348] GELDMACHER J. (2000);samp. PS-2;;MADEIRA ARCHIPELAGO / PORTO SANTO;DIKE;33.0842;-16.0311;33.0842;-16.0311;;;OUTCROP;;;SUBAERIAL;VOLCANIC ROCK;BENMOREITE;;;;;;;;;;;;WHOLE ROCK;;;;;;;;;;58.14;1.21;;;;18.76;;;;;;;;5.92;;;;;5.66;1.25;0.21;;;;;;1.8;XRF;;;6.28;0.43;;0.63;;;0.19;;;;;;;;;;;;;;;;;;;;;;;;;;;;;;;;;;;;;63;XRF;;;0;XRF;;;39;XRF;;;0;XRF;;;;;;;133;XRF;;;24;XRF;;;;;;;42.4;ICPMS;;;;;1178;ICPMS;;;;;47.9;ICPMS;;;712;ICPMS;;;160;ICPMS;;;;;;;;;;;;;0.14;ICPMS;;;622;ICPMS;;;107;ICPMS;;;200;ICPMS;;;22.1;81.1;ICPMS;;;;;14;ICPMS;;;4.01;ICPMS;;;11.9;ICPMS;;;1.61;ICPMS;;;8.55;ICPMS;;;1.6;4.51;ICPMS;;;0.61;3.95;ICPMS;;;0.57;13;9.23;531;;;;;0.05;4.73;ICPMS;;;;;;8.99;ICPMS;;;1.9;ICPMS;;;0.513044;;;;0.1;0.70296;;;0.1;18.939;TIMS;;;;15.512;TIMS;;;;;38.61;TIMS;;;;;;;;;;;;;;;;;;;;;;;;;;;;;;;;;;;;;;;;;;;;;;;;;;;;;;;;;;;;;
1987;[3425] DICKIN A. P. (1987);samp. SK910;47643;NORTH ATLANTIC IGNEOUS PROVINCE (NAIP) / BRITISH TERTIARY VOLCANIC PROVINCE / SKYE MAIN LAVA SERIES;SKYE, BRACADALE GROUP, SLOPE BELOW TOTARDOR, BRACADALE;57.3667;-6.4;57.3667;-6.4;;;OUTCROP;;;SUBAERIAL;VOLCANIC ROCK;BENMOREITE;;;;;CENOZOIC;;;;;;;WHOLE ROCK;;;;;;;;;;;;;;;;;;;;;;;;;;;;;;;;;;;;;;;;;;;;;;;;;;;;;;;;;;;;;;;;;;;;;;;;;;;;;;;;;;;;;;;;;;;;;;;;;;;;;;;;;;;;;;;;;;;;;;;;;;;;;;;;;;;;;;;;;;;;;;;;;;;;;;;;;;;;;68.1;TIMS_ID;;;142.1;TIMS_ID;;;;69.95;TIMS_ID;;;;;13.434;TIMS_ID;;;4.23;TIMS_ID;;;11.9;TIMS_ID;;;;;;;10.15;TIMS_ID;;;;5.44;TIMS_ID;;;;5;TIMS_ID;;;;;;;;;;;;;;;;;;;;;;;;;;;0.512306;;;;;0.70412;;;;15.886;TIMS;;;;15.035;TIMS;;;;;35.76;TIMS;;;;;;;;;;;;;;;;;;;;;;;;;;;;;;;;;;;;;;;;;;;;;;;;;;;;;;;;;;;;;
1987;[3425] DICKIN A. P. (1987);samp. SK911;47644;NORTH ATLANTIC IGNEOUS PROVINCE (NAIP) / BRITISH TERTIARY VOLCANIC PROVINCE / SKYE MAIN LAVA SERIES;SKYE, BRACADALE GROUP, SLOPE BELOW TOTARDOR, BRACADALE;57.3667;-6.4;57.3667;-6.4;;;OUTCROP;;;SUBAERIAL;VOLCANIC ROCK;BENMOREITE;;;;;CENOZOIC;;;;;;;WHOLE ROCK;;;;;;;;;;;;;;;;;;;;;;;;;;;;;;;;;;;;;;;;;;;;;;;;;;;;;;;;;;;;;;;;;;;;;;;;;;;;;;;;;;;;;;;;;;;;;;;;;;;;;;;;;;;;;;;;;;;;;;;;;;;;;;;;;;;;;;;;;;;;;;;;;;;;;;;;;;;;;67.2;TIMS_ID;;;141.3;TIMS_ID;;;;68.62;TIMS_ID;;;;;13.154;TIMS_ID;;;4.11;TIMS_ID;;;11.44;TIMS_ID;;;;;;;9.92;TIMS_ID;;;;5.42;TIMS_ID;;;;4.99;TIMS_ID;;;;;;;;;;;;;;;;;;;;;;;;;;;0.512292;;;;;;;;;15.852;TIMS;;;;15.059;TIMS;;;;;35.79;TIMS;;;;;;;;;;;;;;;;;;;;;;;;;;;;;;;;;;;;;;;;;;;;;;;;;;;;;;;;;;;;;
1987;[3425] DICKIN A. P. (1987);samp. SK986;47645;NORTH ATLANTIC IGNEOUS PROVINCE (NAIP) / BRITISH TERTIARY VOLCANIC PROVINCE / SKYE MAIN LAVA SERIES;SKYE, BRACADALE GROUP, ROADSIDE ON A863 AT COILLORE, BRACADALE;57.3667;-6.4;57.3667;-6.4;;;OUTCROP;;;SUBAERIAL;VOLCANIC ROCK;BENMOREITE;;;;;CENOZOIC;;;;;;;WHOLE ROCK;;;;;;;;;;;;;;;;;;;;;;;;;;;;;;;;;;;;;;;;;;;;;;;;;;;;;;;;;;;;;;;;;;;;;;;;;;;;;;;;;;;;;;;;;;;;;;;;;;;;;;;;;;;;;;;;;;;;;;;;;;;;;;;;;;;;;;;;;;;;;;;;;;;;;;;;;;;;;67.7;TIMS_ID;;;140.3;TIMS_ID;;;;68.01;TIMS_ID;;;;;12.995;TIMS_ID;;;4.05;TIMS_ID;;;11.39;TIMS_ID;;;;;;;10;TIMS_ID;;;;5.36;TIMS_ID;;;;4.94;TIMS_ID;;;;;;;;;;;;;;;;;;;;;;;;;;;0.512309;;;;;0.70413;;;;15.896;TIMS;;;;15.052;TIMS;;;;;35.82;TIMS;;;;;;;;;;;;;;;;;;;;;;;;;;;;;;;;;;;;;;;;;;;;;;;;;;;;;;;;;;;;;
1987;[3425] DICKIN A. P. (1987);samp. SK914;47653;NORTH ATLANTIC IGNEOUS PROVINCE (NAIP) / BRITISH TERTIARY VOLCANIC PROVINCE / SKYE MAIN LAVA SERIES;SKYE, BRACADALE GROUP, WATERFALL IN STREAM RUNNING NNW FROM STRUAN, BRACADALE;57.3667;-6.4;57.3667;-6.4;;;OUTCROP;;;SUBAERIAL;VOLCANIC ROCK;BENMOREITE;;;;;;;;;;;;WHOLE ROCK;;;;;;;;;;;;;;;;;;;;;;;;;;;;;;;;;;;;;;;;;;;;;;;;;;;;;;;;;;;;;;;;;;;;;;;;;;;;;;;;;;;;;;;;;;;;;;;;;;;;;;;;;;;;;;;;;;;;;;;;;;;;;;;;;;;;;;;;;;;;;;;;;;;;;;;;;;;;;61.3;TIMS_ID;;;139.4;TIMS_ID;;;;79.48;TIMS_ID;;;;;16.127;TIMS_ID;;;5.12;TIMS_ID;;;14.29;TIMS_ID;;;;;;;10.75;TIMS_ID;;;;5.24;TIMS_ID;;;;4.16;TIMS_ID;;;;;;;;;;;;;;;;;;;;;;;;;;;0.512126;;;;;;;;;;;;;;;;;;;;;;;;;;;;;;;;;;;;;;;;;;;;;;;;;;;;;;;;;;;;;;;;;;;;;;;;;;;;;;;;;;
1989;[3839] VERMA S. P. (1989);samp. SN-25;;MEXICAN VOLCANIC BELTS / TRANS MEXICAN VOLCANIC BELT / NAYARIT / SANGANGUEY;STRATOVOLCANO;21.43;-104.73;21.43;-104.73;;;OUTCROP;;;SUBAERIAL;VOLCANIC ROCK;BENMOREITE;;;;;;;;;;;;WHOLE ROCK;;;;;;;;;;59.9;1.01;;;;16.2;;;;;;;;;;;8.7;;3.59;1.5;0.28;;;;;;3.18;XRF;;;5.3;0.39;;;;;;;;;;;;;;;;;;;;;;;;;;;;;;;;;;;;;;;;;;;;;;;;;;;;;;0;XRF;;;7;XRF;;;160;XRF;;;;;;;;;;;45;XRF;;;;;360;XRF;;;;;70;XRF;;;457;XRF;;;40;XRF;;;;;;;;;;;;;;;;;1505;XRF;;;64;DCPAES;;;154;DCPAES;;;;73;DCPAES;;;;;17;DCPAES;;;;;;;;;;;;;;;;;;;;;;;;;;;;;;;;;;;;;;;;;;;;;;;;;;;;;0.512843;;;;;0.704063;;;;;;;;;;;;;;;;;;;;;;;;;;;;;;;;;;;;;;;;;;;;;;;;;;;;;;;;;;;;;;;;;;;;;;;;;;;;;
1989;[3839] VERMA S. P. (1989);samp. JH-93;;MEXICAN VOLCANIC BELTS / TRANS MEXICAN VOLCANIC BELT / NAYARIT / SANGANGUEY;STRATOVOLCANO;21.43;-104.73;21.43;-104.73;;;OUTCROP;;;SUBAERIAL;VOLCANIC ROCK;BENMOREITE;;;;;;;;;;;;WHOLE ROCK;;;;;;;;;;54.1;2.23;;;;17.4;;;;;;;;;;;10.7;;6.47;2.2;0.26;;;;;;1.89;XRF;;;3.7;1.01;;;;;;;;;;;;;;;;;;;;;;;;;;;;;;;;;;;;;;;;;;;;;;;;;;;;;;23;XRF;;;33;XRF;;;215;XRF;;;;;;;;;;;28;XRF;;;;;462;XRF;;;;;746;XRF;;;366;XRF;;;7;XRF;;;;;;;;;;;;;;;;;916;XRF;;;724;DCPAES;;;192;DCPAES;;;;609;DCPAES;;;;;103.2;DCPAES;;;;;;;;;;;;;;;;;;;;;;;;;;;;;;;;;;;;;;;;;;;;;;;;;;;;;0.512831;;;;;0.704075;;;;;;;;;;;;;;;;;;;;;;;;;;;;;;;;;;;;;;;;;;;;;;;;;;;;;;;;;;;;;;;;;;;;;;;;;;;;;
1989;[3839] VERMA S. P. (1989);samp. JH-50;;MEXICAN VOLCANIC BELTS / TRANS MEXICAN VOLCANIC BELT / NAYARIT / SANGANGUEY;STRATOVOLCANO;21.43;-104.73;21.43;-104.73;;;OUTCROP;;;SUBAERIAL;VOLCANIC ROCK;BENMOREITE;;;;;;;;;;;;WHOLE ROCK;;;;;;;;;;54.1;0.92;;;;16.6;;;;;;;;;;;8.6;;4.07;0.9;0.23;;;;;;2.88;XRF;;;5.2;0.42;;;;;;;;;;;;;;;;;;;;;;;;;;;;;;;;;;;;;;;;;;;;;;;;;;;;;;13;XRF;;;22;XRF;;;142;XRF;;;;;;;;;;;38;XRF;;;;;398;XRF;;;;;67;XRF;;;438;XRF;;;36;XRF;;;;;;;;;;;;;;;;;1259;XRF;;;58;DCPAES;;;128;DCPAES;;;;67;DCPAES;;;;;15.7;DCPAES;;;;;;;;;;;;;;;;;;;;;;;;;;;;;;;;;;;;;;;;;;;;;;;;;;;;;0.512758;;;;;0.704348;;;;;;;;;;;;;;;;;;;;;;;;;;;;;;;;;;;;;;;;;;;;;;;;;;;;;;;;;;;;;;;;;;;;;;;;;;;;;
1989;[3839] VERMA S. P. (1989);samp. JH-50;;MEXICAN VOLCANIC BELTS / TRANS MEXICAN VOLCANIC BELT / NAYARIT / SANGANGUEY;STRATOVOLCANO;21.43;-104.73;21.43;-104.73;;;OUTCROP;;;SUBAERIAL;VOLCANIC ROCK;BENMOREITE;;;;;;;;;;;;WHOLE ROCK;;;;;;;;;;;;;;;;;;;;;;;;;;;;;;;;;;;;;;;;;;;;;;;;;;;;;;;;;;;;;;;;;;;;;;;;;;;;;;;;;;;;;;;;;;;;;;;;;;;;;;;;;;;;;;;;;;;;;;;;;;;;;;;;;;;;;;;;;;;;;;;;;;;;;;;;;;;;;;;;;;;;;;;;;;;;;;;;;;;;;;;;;;;;;;;;;;;;;;;;;;;;;;;;;;;;;;;;;;;;;;;;;;0.512775;;;;;;;;;;;;;;;;;;;;;;;;;;;;;;;;;;;;;;;;;;;;;;;;;;;;;;;;;;;;;;;;;;;;;;;;;;;;;;;;;;
2001;[4594] PRESTVIK T.(2001)  [GeoReM [325] ];samp. OR98;;ICELAND / ICELAND / RAEFAJKULL;;64.03;-16.68;64.03;-16.68;;;OUTCROP;;;SUBAERIAL;VOLCANIC ROCK;BENMOREITE;;;;;;;;;;;;WHOLE ROCK;;;;;;;;;;57.8;1.62;;;;13.73;;;;;;;;;2.1;;10.61;;5.45;1.56;0.32;;;;;;1.53;XRF;;;4.88;0.58;;;;;;;;;;;;0.21;;;;;;;;;;;;;;;;;;;;;;;;;22;XRF;;;;5;XRF;;;4;XRF;;;23;XRF;;;4;XRF;;;;;;;126;XRF;;;;;;;;;;;32;XRF;;;;;306;XRF;;;;;83;XRF;;;395;XRF;;;50.8;XRF;;;;;;;;;;;;;0.38;NOT;;;395;XRF;;;44.1;NOT;;;95;NOT;;;12.16;55.7;NOT;;;;;15.47;NOT;;;5.3;NOT;;;16;NOT;;;2.73;NOT;;;16.43;NOT;;;3.24;8.66;NOT;;;1.17;7.1;NOT;;;1.1;10.9;3.11;;;;;;;;;;;;;;4.1;NOT;;;1.21;NOT;;;0.512991;;;;;0.703762;;;;18.51;TIMS;;;;15.515;TIMS;;;;;38.445;TIMS;;;;;;;;;;;;;;;;;;;;;;;;5.5;;;;;;;;;;;;;;;;;;;;;;;;;;;;;;;;;;;;;
2000;[4825] HARDS V. L. (2000);samp. VH190;;ICELAND / ICELAND / SNAEFELLSJKULL;;64.807;-15.633;64.807;-15.633;;;OUTCROP;;;SUBAERIAL;VOLCANIC ROCK;BENMOREITE;;;;;;;;;;;;WHOLE ROCK;;;;;;;;;;59.09;1.04;;;;15.46;;;;;;;;9.21;;;;;4.22;1.24;0.27;;;;;;2.18;XRF;;;5.29;0.39;;;;;;;;;;;;-0.26;;;;;;;;;;;;;;;;;;;;;;;;;14;XRF;;;;10.3;XRF;;;3.9;XRF;;;16.4;XRF;;;2.1;XRF;;;7.8;XRF;;;126.2;XRF;;;28.4;XRF;;;;;;;47.8;XRF;;;;;413.3;XRF;;;;;64.2;XRF;;;401.6;XRF;;;51.7;XRF;;;;;;;;;;;;;;;;;579.6;XRF;;;59.7;ICPMS;;;120.1;ICPMS;;;;68;ICPMS;;;;;;;;;;;;;;;;;;;;;;;;;;;;;;;;;;;;;;;;;;;;;;;;;;;;;;;;;;;0.51301;;;;;0.703302;;;;18.486;TIMS;;;;15.474;TIMS;;;;;38.202;TIMS;;;;;;;;;;;;;;;;;;;;;;;;;5.1;;;;;;;;;;;;;;;;;;;;;;;;;;;;;;;;;;;;
2000;[4843] THIRLWALL M. F. (2000);samp. AD28;;CANARY ISLANDS / TENERIFE;ROQUE DEL CONDE MASSIF;28.3;-16.6;28.3;-16.6;;;OUTCROP;;;SUBAERIAL;VOLCANIC ROCK;BENMOREITE;;;11000000;;MIOCENE;;;;;;;WHOLE ROCK;;;;;;;;;;56.78;1.28;;;;19.94;;;;;;;;5.47;;;;;4.9;1.29;0.224;;;;;;3.445;XRF;;;6.53;0.215;;;;;;;;;;;;1.49;;;;;;;;;;171;;;;;;;;;;;;;;;1;XRF;;;;33;XRF;;;2;XRF;;;;;;;3;XRF;;;1;XRF;;;94;XRF;;;27.8;XRF;;;;;;;79.8;XRF;;;;;1197;XRF;;;;;44.2;XRF;;;707;XRF;;;172;XRF;;;;;;;;;;;;;;;;;811;XRF;;;103;XRF;109.9;TIMS_ID;194;XRF;206;TIMS_ID;;71;XRF;79.15;TIMS_ID;;;13.15;TIMS_ID;;;3.917;TIMS_ID;;;10.25;TIMS_ID;;;;;;;11.38;TIMS_ID;;;;5.67;TIMS_ID;;;;4.85;TIMS_ID;;;0.693;;;;;;;;;8.2;XRF;;;;;;13.3;XRF;;;;;;;;;;;;;;;;;;;;;;;;;;;;;;;;;;;;;;;;;;;;;;;;;;;;;;;;;;;;;;;;;;;;;;;;;;;;;;;;;;;;;;;;;
2000;[4843] THIRLWALL M. F. (2000);samp. AN33;;CANARY ISLANDS / TENERIFE;ANAGA MASSIF;28.5;-16.3;28.5;-16.3;;;OUTCROP;;;SUBAERIAL;VOLCANIC ROCK;BENMOREITE;;;4200000;8000000;NEOGENE;;;;;;;WHOLE ROCK;;;;;;;;;;59.38;1.06;;;;19.69;;;;;;;;4.4;;;;;3.12;0.93;0.216;;;;;;3.738;XRF;;;6.82;0.197;;;;;;;;;;;;1.24;;;;;;;;;;332;;;;;;;;;;;;;;;1;XRF;;;;38;XRF;;;3;XRF;;;;;;;7;XRF;;;1;XRF;;;134;XRF;;;28.7;XRF;;;;;;;89.7;XRF;;;;;1521;XRF;;;;;58.1;XRF;;;1033;XRF;;;254;XRF;;;;;;;;;;;;;;;;;1159;XRF;;;177;XRF;;;342;XRF;;;;125;XRF;;;;;;;;;;;;;;;;;;;;;;;;;;;;;;;;;;;;;;;;;;;;9;XRF;;;;;;19;XRF;;;;;;;;;;;;;;;;;;;;;;;;;;;;;;;;;;;;;;;;;;;;;;;;;;;;;;;;;;;;;;;;;;;;;;;;;;;;;;;;;;;;;;;;;
2000;[4843] THIRLWALL M. F. (2000);samp. AN34;;CANARY ISLANDS / TENERIFE;ANAGA MASSIF;28.5;-16.3;28.5;-16.3;;;OUTCROP;;;SUBAERIAL;VOLCANIC ROCK;BENMOREITE;;;4200000;8000000;NEOGENE;;;;;;;WHOLE ROCK;;;;;;;;;;59.75;1.05;;;;20.2;;;;;;;;4.41;;;;;3.3;1.02;0.222;;;;;;3.643;XRF;;;5.95;0.197;;;;;;;;;;;;1.83;;;;;;;;;;1161;;;;;;;;;;;;;;;2;XRF;;;;37;XRF;;;5;XRF;;;;;;;4;XRF;;;3;XRF;;;141;XRF;;;28.6;XRF;;;;;;;82.1;XRF;;;;;1558;XRF;;;;;56.5;XRF;;;1028;XRF;;;251;XRF;;;;;;;;;;;;;;;;;1161;XRF;;;177;XRF;;;342;XRF;;;;124;XRF;;;;;;;;;;;;;;;;;;;;;;;;;;;;;;;;;;;;;;;;;;;;8.6;XRF;;;;;;18.8;XRF;;;;;;;;;;;;;;;;;;;;;;;;;;;;;;;;;;;;;;;;;;;;;;;;;;;;;;;;;;;;;;;;;;;;;;;;;;;;;;;;;;;;;;;;;
2000;[4843] THIRLWALL M. F. (2000);samp. AN35;;CANARY ISLANDS / TENERIFE;ANAGA MASSIF;28.5;-16.3;28.5;-16.3;;;OUTCROP;;;SUBAERIAL;VOLCANIC ROCK;BENMOREITE;;;4200000;8000000;NEOGENE;;;;;;;WHOLE ROCK;;;;;;;;;;58.86;1.17;;;;19.49;;;;;;;;4.67;;;;;3.45;1.07;0.209;;;;;;3.673;XRF;;;6.79;0.244;;;;;;;;;;;;1.23;;;;;;;;;;361;;;;;;;;;;;;;;;2;XRF;;;;45;XRF;;;3;XRF;;;;;;;8;XRF;;;2;XRF;;;137;XRF;;;27.7;XRF;;;;;;;88;XRF;;;;;1478;XRF;;;;;59.1;XRF;;;986;XRF;;;240;XRF;;;;;;;;;;;;;;;;;1091;XRF;;;172;XRF;;;331;XRF;;;;127;XRF;;;;;;;;;;;;;;;;;;;;;;;;;;;;;;;;;;;;;;;;;;;;8.7;XRF;;;;;;18.3;XRF;;;;;;;;;;;;;;;;;;;;;;;;;;;;;;;;;;;;;;;;;;;;;;;;;;;;;;;;;;;;;;;;;;;;;;;;;;;;;;;;;;;;;;;;;
2000;[4843] THIRLWALL M. F. (2000);samp. AN36;;CANARY ISLANDS / TENERIFE;ANAGA MASSIF;28.5;-16.3;28.5;-16.3;;;OUTCROP;;;SUBAERIAL;VOLCANIC ROCK;BENMOREITE;;;4200000;8000000;NEOGENE;;;;;;;WHOLE ROCK;;;;;;;;;;59.13;1.19;;;;19.78;;;;;;;;4.76;;;;;3.58;1.11;0.198;;;;;;3.649;XRF;;;5.86;0.23;;;;;;;;;;;;1.55;;;;;;;;;;1050;;;;;;;;;;;;;;;2;XRF;;;;44;XRF;;;3;XRF;;;;;;;9;XRF;;;6;XRF;;;130;XRF;;;28.7;XRF;;;;;;;82.3;XRF;;;;;1539;XRF;;;;;57.5;XRF;;;990;XRF;;;240;XRF;;;;;;;;;;;;;;;;;1114;XRF;;;176;XRF;176;TIMS_ID;345;XRF;334.2;TIMS_ID;;134;XRF;131.64;TIMS_ID;;;20.647;TIMS_ID;;;5.822;TIMS_ID;;;15;TIMS_ID;;;;;;;10.49;TIMS_ID;;;;5.14;TIMS_ID;;;;4.18;TIMS_ID;;;0.589;;;;;;;;;10;XRF;10.78;TIMS_ID;;;;18.4;XRF;;;3.07;TIMS_ID;;;;;;;;;;;;;;;;;;;;;;;;;;;;;;;;;;;;;;;;;;;;;;;;;;;;;;;;;;;;;;;;;;;;;;;;;;;;;;;;;;;;;