Year;CITATION;SAMPLE NAME;UNIQUE_ID;LOCATION;LOCATION COMMENT;LATITUDE (MIN.);LONGITUDE (MIN.);LATITUDE (MAX.);LONGITUDE (MAX.);ELEVATION (MIN.);ELEVATION (MAX.);SAMPLING TECHNIQUE;DRILLING DEPTH (MIN.);DRILLING DEPTH (MAX.);LAND/SEA (SAMPLING);ROCK TYPE;ROCK NAME;ROCK TEXTURE;SAMPLE COMMENT;AGE (MIN.);AGE (MAX.);GEOLOGICAL AGE;GEOLOGICAL AGE PREFIX;ERUPTION DAY;ERUPTION MONTH;ERUPTION YEAR;ALTERATION;ALTERATION TYPE;TYPE OF MATERIAL;MINERAL / COMPONENT;SPOT (MINERAL);CRYSTAL;RIM / CORE (MINERAL GRAINS);PRIMARY/SECONDARY;INCLUSION TYPE;MINERAL (INCLUSION);HOSTMINERAL (INCLUSION);HEATING;SIO2(WT%);TIO2(WT%);ZRO2(WT%);HFO2(WT%);THO2(WT%);AL2O3(WT%);CR2O3(WT%);LA2O3(WT%);CE2O3(WT%);ND2O3(WT%);SM2O3(WT%);V2O3(WT%);NB2O5(WT%);FE2O3T(WT%);FE2O3(WT%);FEOT(WT%);FEO(WT%);FET(WT%);CAO(WT%);MGO(WT%);MNO(WT%);BAO(WT%);SRO(WT%);NIO(WT%);ZNO(WT%);RB2O(WT%);K2O(WT%);;;;NA2O(WT%);P2O5(WT%);AS2O5(WT%);H2O(WT%);H2OP(WT%);H2OM(WT%);CO2(WT%);C(WT%);F(WT%);CL(WT%);OH(WT%);SO3(WT%);S(WT%);LOI(WT%);TI(WT%);CA(WT%);K(WT%);LI(PPM);BE(PPM);B(PPM);F(PPM);P(PPM);S(PPM);CL(PPM);AR40(AT/G);;;;AR40(CCMSTP/G);;;;AR40(MOL/G);;;;AR40(PPB);K(PPM);SC(PPM);;;;TI(PPM);V(PPM);;;;CR(PPM);;;;CO(PPM);;;;NI(PPM);;;;CU(PPM);;;;ZN(PPM);;;;GA(PPM);;;;GE(PPM);AS(PPM);AS(PPB);SE(PPM);RB(PPM);;;;;;SR(PPM);;;;;;Y(PPM);;;;ZR(PPM);;;;NB(PPM);;;;MO(PPM);AG(PPM);CD(PPM);IN(PPM);SN(PPM);SB(PPM): altern. values or methods;;;;TE(PPM);CS(PPM): altern. values or methods;;;;BA(PPM): altern. values or methods;;;;LA(PPM): altern. values or methods;;;;CE(PPM): altern. values or methods;;;;PR(PPM);ND(PPM): altern. values or methods;;;;;;SM(PPM): altern. values or methods;;;;EU(PPM): altern. values or methods;;;;GD(PPM): altern. values or methods;;;;TB(PPM): altern. values or methods;;;;DY(PPM): altern. values or methods;;;;HO(PPM);ER(PPM): altern. values or methods;;;;TM(PPM);YB(PPM): altern. values or methods;;;;LU(PPM);HF(PPM);TA(PPM);W(PPM);RE(PPM);AU(PPM);HG(PPM);HG(PPB);TL(PPM);PB(PPM): altern. values or methods;;;;BI(PPM);PO210_ACT(DPM/G);RA226_ACT(DPM/G);TH(PPM): altern. values or methods;;;;U(PPM): altern. values or methods;;;;ND143_ND144;ND143_ND144_INI;EPSILON_ND;EPSILON_ND_INI;SM147_ND144;SR87_SR86;SR87_SR86_INI;EPSILON_SR_INI;RB87_SR86;PB206_PB204: altern. values or methods;;;;PB206_PB204_INI;PB207_PB204: altern. values or methods;;;;PB207_PB204_INI;PB207_PB206;PB208_PB204: altern. values or methods;;;;PB208_PB204_INI;PB208_PB206;HF176_HF177;LU176_HF177;AR38_AR36;AR40_AR36;AR40_AR36_INI;PB206_U238;PB207_U235;RA226_TH230_ACT;PA231_U235_ACT;TH230_TH232_ACT;TH230_U238_ACT;TH232_PB204;U234_U238_ACT;U235_PB204;U238_PB204;U238_TH232_ACT;D7LI(VS LSVEC);D13C(VS PDB);D18O(PER MIL);D18O(VS SMOW);D18O(VS VSMOW);D34S(VS VCDT);ALBITE(MOL%);ANORTHITE(MOL%);CA OLIVINE(MOL%);CHROMITE(MOL%);ENSTATITE(MOL%);FAYALITE(MOL%);FORSTERITE(MOL%);FERROSILITE(MOL%);HEMATITE(MOL%);HERCYNITE(MOL%);ILMENITE(MOL%);MAGNESIOFERRITE(MOL%);MONTICELLITE(MOL%);MAGNETITE(MOL%);ORTHOCLASE(MOL%);PICROCHROMITE(MOL%);SPINEL(MOL%);TEPHROITE(MOL%);ULVOSPINEL(MOL%);WOLLASTONITE(MOL%);AGE(KA): altern. values or methods;;;;;;AGE(MA): altern. values or methods;;;;;;AGE_PB207_U235(MA);AGE_PB206_U238(MA);
2001;[13027] NGOUNOUNO I. (2001);samp. 2;;MID-AFRICAN RIFT SYSTEM / CAMEROON LINE (CONTINENTAL SECTION) / NORTHERN CAMEROON LINE;BABOURI-FIGUIL HALFGRABEN;9.7;13.8;9.8;14;;;OUTCROP;;;SUBAERIAL;VOLCANIC ROCK;BENMOREITE;;;;;CRETACEOUS;LOWER;;;;;;MINERAL / COMPONENT (INCL. GROUNDMASS);BIOTITE;;;;PRIMARY;;;;;36.66;5.87;;;;14.68;;;;;;;;;;12.96;;;;14.55;0.04;0.62;;;;;8.1;EMP (EPMA);;;1.03;;;;;;;;0.97;;;;;;;;;;;;;;;;;;;;;;;;;;;;;;;;;;;;;;;;;;;;;;;;;;;;;;;;;;;;;;;;;;;;;;;;;;;;;;;;;;;;;;;;;;;;;;;;;;;;;;;;;;;;;;;;;;;;;;;;;;;;;;;;;;;;;;;;;;;;;;;;;;;;;;;;;;;;;;;;;;;;;;;;;;;;;;;;;;;;;;;;;;;;;;;;;;;;;;;;;;;;;;;;;;;;;;;;;;;;;;;;;;;;;;;;;;;;;;;;;;;;;;;;;;;;;;;;;;;;
2001;[13027] NGOUNOUNO I. (2001);samp. 2;;MID-AFRICAN RIFT SYSTEM / CAMEROON LINE (CONTINENTAL SECTION) / NORTHERN CAMEROON LINE;BABOURI-FIGUIL HALFGRABEN;9.7;13.8;9.8;14;;;OUTCROP;;;SUBAERIAL;VOLCANIC ROCK;BENMOREITE;;;;;CRETACEOUS;LOWER;;;;;;WHOLE ROCK;;;;;;;;;;62.06;0.83;;;;16.79;;;;;;;;4.02;;;;;2.51;1.68;0.04;;;;;;3.47;ICPAES;;;6.15;0.41;;;;;;;;;;;;1.68;;;;;;;;;;;;;;;;;;;;;;;;;;;;;;32;ICPMS;;;47;ICPMS;;;8;ICPMS;;;35;ICPMS;;;;;;;;;;;;;;;;;;;73;ICPMS;;;;;1086;ICPMS;;;;;10;ICPMS;;;533;ICPMS;;;50;ICPMS;;;;;;;;;;;;;;;;;738;ICPMS;;;55.7;ICPMS;;;102;ICPMS;;;10.4;35;ICPMS;;;;;6.3;ICPMS;;;1.8;ICPMS;;;4;ICPMS;;;0.55;ICPMS;;;2.4;ICPMS;;;0.39;0.9;ICPMS;;;0.09;0.6;ICPMS;;;0.08;12.6;4.1;;;;;;;6.2;ICPMS;;;;;;9.6;ICPMS;;;3;ICPMS;;;;;;;;;;;;;;;;;;;;;;;;;;;;;;;;;;;;;;;;;;;;;;;;;;;;;;;;;;;;;;;;;;;;;;;;;;;;;;;;;;;;;
2002;[13387] ROCCHI S. (2002);samp. SAX8;;ANTARCTICA / WEST ANTARCTIC RIFT SYSTEM / VICTORIA LAND / GREENE IGNEOUS COMPLEX;;-73;165;-75;170;;;OUTCROP;;;SUBAERIAL;VOLCANIC ROCK;BENMOREITE;;;;;CENOZOIC;;;;;;;WHOLE ROCK;;;;;;;;;;54.03;1.94;;;;16.79;;;;;;;;;2.26;;7.34;;4.75;2.16;0.22;;;;;;2.04;AAS;;;6.5;0.76;;;;;;;;;;;;1.19;;;;;;;;;;;;;;;;;;;;;;;;;;;;;;36;XRF;;;0;XRF;;;19;XRF;;;0;XRF;;;;;;;;;;;;;;;;;;;56;XRF;;;;;910;XRF;;;;;39;XRF;;;411;XRF;;;84;XRF;;;;;;;;;;;;;;;;;1045;XRF;;;71;XRF;;;132;XRF;;;;;;;;;;;;;;;;;;;;;;;;;;;;;;;;;;;;;;;;;;;;;;;;;;;;;;;;;;;;;;;;0.512851;;;;0.1195;;;;;;;;;;;;;;;;;;;;;;;;;;;;;;;;;;;;;;;;;;;;;;;;;;;;;;;;;;;;;;;;;;;;;;;;;;;;;;
2002;[13387] ROCCHI S. (2002);samp. SAX13;;ANTARCTICA / WEST ANTARCTIC RIFT SYSTEM / VICTORIA LAND / GREENE IGNEOUS COMPLEX;;-73;165;-75;170;;;OUTCROP;;;SUBAERIAL;VOLCANIC ROCK;BENMOREITE;;;;;CENOZOIC;;;;;;;WHOLE ROCK;;;;;;;;;;54.38;2.08;;;;16.8;;;;;;;;;1.96;;6.68;;4.72;2.66;0.15;;;;;;2.93;AAS;;;5.87;0.75;;;;;;;;;;;;1.01;;;;;;;;;;;;;;;;;;;;;;;;;;;;;;76;XRF;;;0;XRF;;;25;XRF;;;0;XRF;;;;;;;;;;;;;;;;;;;71;XRF;;;;;803;XRF;;;;;31;XRF;;;471;XRF;;;80;XRF;;;;;;;;;;;;;;;;;979;XRF;;;63;XRF;;;118;XRF;;;;;;;;;;;;;;;;;;;;;;;;;;;;;;;;;;;;;;;;;;;;;;;;;;;;;;;;;;;;;;;;;;;;;;;;;;;;;;;;;;;;;;;;;;;;;;;;;;;;;;;;;;;;;;;;;;;;;;;;;;;;;;;;;;;;;;;;;;;;;;;;;;
2002;[13387] ROCCHI S. (2002);samp. SAX16;;ANTARCTICA / WEST ANTARCTIC RIFT SYSTEM / VICTORIA LAND / GREENE IGNEOUS COMPLEX;;-73;165;-75;170;;;OUTCROP;;;SUBAERIAL;VOLCANIC ROCK;BENMOREITE;;;;;CENOZOIC;;;;;;;WHOLE ROCK;;;;;;;;;;53.6;2.45;;;;15.05;;;;;;;;;2.08;;7.3;;4.99;2.75;0.22;;;;;;3.38;AAS;;;5.62;0.81;;;;;;;;;;;;1.74;;;;;;;;;;;;;;;;;;;;;;;;;;;;;;147;XRF;;;7;XRF;;;24;XRF;;;3;XRF;;;;;;;;;;;;;;;;;;;144;XRF;;;;;523;XRF;;;;;36;XRF;;;310;XRF;;;56;XRF;;;;;;;;;;;;;;;;;1105;XRF;;;46;XRF;;;92;XRF;;;;;;;;;;;;;;;;;;;;;;;;;;;;;;;;;;;;;;;;;;;;;;;;;;;;;;;;;;;;;;;;;;;;;;;;;;;;;;;;;;;;;;;;;;;;;;;;;;;;;;;;;;;;;;;;;;;;;;;;;;;;;;;;;;;;;;;;;;;;;;;;;;
2002;[13387] ROCCHI S. (2002);samp. SAX19;;ANTARCTICA / WEST ANTARCTIC RIFT SYSTEM / VICTORIA LAND / GREENE IGNEOUS COMPLEX;;-73;165;-75;170;;;OUTCROP;;;SUBAERIAL;VOLCANIC ROCK;BENMOREITE;;;;;CENOZOIC;;;;;;;WHOLE ROCK;;;;;;;;;;54.5;1.75;;;;16.86;;;;;;;;;2.04;;7.32;;4.85;2.18;0.21;;;;;;2.25;AAS;;;6.13;0.74;;;;;;;;;;;;1.17;;;;;;;;;;;;;;;;;;;;;;;;;;;;;;36;XRF;;;3;XRF;;;20;XRF;;;2;XRF;;;;;;;;;;;;;;;;;;;54;XRF;;;;;908;XRF;;;;;39;XRF;;;407;XRF;;;82;XRF;;;;;;;;;;;;;;;;;1023;XRF;;;71;XRF;;;130;XRF;;;;;;;;;;;;;;;;;;;;;;;;;;;;;;;;;;;;;;;;;;;;;;;;;;;;;;;;;;;;;;;;0.512846;;;;0.116;0.703686;;;0.158;;;;;;;;;;;;;;;;;;;;;;;;;;;;;;;;;;;;;;;;;;;;;;;;;;;;;;;;;;;;;;;;;;;;;;;;;;
2002;[13387] ROCCHI S. (2002);samp. LZ53;;ANTARCTICA / WEST ANTARCTIC RIFT SYSTEM / VICTORIA LAND / MONTEAGLE IGNEOUS COMPLEX;;-73;165;-75;170;;;OUTCROP;;;SUBAERIAL;VOLCANIC ROCK;BENMOREITE;;;;;CENOZOIC;;;;;;;WHOLE ROCK;;;;;;;;;;56.95;1.16;;;;17.47;;;;;;;;;2.27;;7.51;;3.49;1.4;0.26;;;;;;2.5;AAS;;;4.75;0.89;;;;;;;;;;;;1.34;;;;;;;;;;;;;;;;;;;;;;;;;;;;;;11;XRF;;;3;XRF;;;19;XRF;;;0;XRF;;;;;;;;;;;;;;;;;;;70;XRF;;;;;1012;XRF;;;;;48;XRF;;;532;XRF;;;131;XRF;;;;;;;;;;;;;;;;;876;XRF;;;124;XRF;;;210;XRF;;;;;;;;;;;;;;;;;;;;;;;;;;;;;;;;;;;;;;;;;;;;;;;;;;;;;;;;;;;;;;;;0.512856;;;;0.1021;0.70364;;;0.217;;;;;;;;;;;;;;;;;;;;;;;;;;;;;;;;;;;;;;;;;;;;;;;;;;;;;;;;;;;;;;;;;;;;;;;;;;
2002;[13387] ROCCHI S. (2002);samp. SX6;;ANTARCTICA / WEST ANTARCTIC RIFT SYSTEM / VICTORIA LAND / MONTEAGLE IGNEOUS COMPLEX;;-73;165;-75;170;;;OUTCROP;;;SUBAERIAL;VOLCANIC ROCK;BENMOREITE;;;;;CENOZOIC;;;;;;;WHOLE ROCK;;;;;;;;;;54.22;0.89;;;;17.14;;;;;;;;;4.42;;5.13;;3.04;0.89;0.16;;;;;;3.11;AAS;;;6.38;0.53;;;;;;;;;;;;4.09;;;;;;;;;;;;;;;;;;;;;;;;;;;;;;11;XRF;;;6;XRF;;;20;XRF;;;0;XRF;;;;;;;;;;;;;;;;;;;87;XRF;;;;;725;XRF;;;;;34;XRF;;;739;XRF;;;122;XRF;;;;;;;;;;;;;;;;;972;XRF;;;112;XRF;;;183;XRF;;;;;;;;;;;;;;;;;;;;;;;;;;;;;;;;;;;;;;;;;;;;;;;;;;;;;;;;;;;;;;;;;;;;;;;;;;;;;;;;;;;;;;;;;;;;;;;;;;;;;;;;;;;;;;;;;;;;;;;;;;;;;;;;;;;;;;;;;;;;;;;;;;
2002;[13387] ROCCHI S. (2002);samp. SX8;;ANTARCTICA / WEST ANTARCTIC RIFT SYSTEM / VICTORIA LAND / MONTEAGLE IGNEOUS COMPLEX;;-73;165;-75;170;;;OUTCROP;;;SUBAERIAL;VOLCANIC ROCK;BENMOREITE;;;;;CENOZOIC;;;;;;;WHOLE ROCK;;;;;;;;;;56.91;1.05;;;;16.72;;;;;;;;;1.92;;7.12;;3.38;1.02;0.27;;;;;;3.51;AAS;;;5.95;0.59;;;;;;;;;;;;1.57;;;;;;;;;;;;;;;;;;;;;;;;;20;ICPMS;;;;9;XRF;214;ICPMS;0;XRF;247;ICPMS;16;XRF;47;ICPMS;0;XRF;235;ICPMS;;;;;;;;;;;;;;;;;82;XRF;57;ICPMS;;;709;XRF;670;ICPMS;;;37;XRF;26.9;ICPMS;606;XRF;295;ICPMS;115;XRF;63;ICPMS;3.8;;;;;;;;;;5.3;ICPMS;;;1229;XRF;394;ICPMS;90;XRF;47;ICPMS;166;XRF;95;ICPMS;11.7;47;ICPMS;;;;;9.4;ICPMS;;;2.86;ICPMS;;;7.4;ICPMS;;;1.11;ICPMS;;;6;ICPMS;;;1.01;2.29;ICPMS;;;0.27;1.73;ICPMS;;;0.26;7;4.1;;;;;;;;;;;;;;5.6;ICPMS;;;1.56;ICPMS;;;;;;;;;;;;;;;;;;;;;;;;;;;;;;;;;;;;;;;;;;;;;;;;;;;;;;;;;;;;;;;;;;;;;;;;;;;;;;;;;;;;;
2002;[13387] ROCCHI S. (2002);samp. SX11;;ANTARCTICA / WEST ANTARCTIC RIFT SYSTEM / VICTORIA LAND / MONTEAGLE IGNEOUS COMPLEX;;-73;165;-75;170;;;OUTCROP;;;SUBAERIAL;VOLCANIC ROCK;BENMOREITE;;;;;CENOZOIC;;;;;;;WHOLE ROCK;;;;;;;;;;57.51;0.79;;;;17.57;;;;;;;;;2.39;;5.03;;2.65;0.92;0.2;;;;;;3.66;AAS;;;6.96;0.61;;;;;;;;;;;;1.71;;;;;;;;;;;;;;;;;;;;;;;;;;;;;;9;XRF;;;0;XRF;;;15;XRF;;;0;XRF;;;;;;;;;;;;;;;;;;;130;XRF;;;;;823;XRF;;;;;37;XRF;;;675;XRF;;;116;XRF;;;;;;;;;;;;;;;;;996;XRF;;;95;XRF;;;158;XRF;;;;;;;;;;;;;;;;;;;;;;;;;;;;;;;;;;;;;;;;;;;;;;;;;;;;;;;;;;;;;;;;;;;;;;;;;;;;;;;;;;;;;;;;;;;;;;;;;;;;;;;;;;;;;;;;;;;;;;;;;;;;;;;;;;;;;;;;;;;;;;;;;;
2002;[13387] ROCCHI S. (2002);samp. SAX8_LEACHED;;ANTARCTICA / WEST ANTARCTIC RIFT SYSTEM / VICTORIA LAND / GREENE IGNEOUS COMPLEX;;-73;165;-75;170;;;OUTCROP;;;SUBAERIAL;VOLCANIC ROCK;BENMOREITE;;;;;CENOZOIC;;;;;;;WHOLE ROCK;;;;;;;;;;;;;;;;;;;;;;;;;;;;;;;;;;;;;;;;;;;;;;;;;;;;;;;;;;;;;;;;;;;;;;;;;;;;;;;;;;;;;;;;;;;;;;;;;;;;;;;;;;;;;;;;;;;;;;;;;;;;;;;;;;;;;;;;;;;;;;;;;;;;;;;;;;;;;;;;;;;;;;;;;;;;;;;;;;;;;;;;;;;;;;;;;;;;;;;;;;;;;;;;;;;;;;;;;;;;;;;;;;;;;;;0.703714;;;0.156;;;;;;;;;;;;;;;;;;;;;;;;;;;;;;;;;;;;;;;;;;;;;;;;;;;;;;;;;;;;;;;;;;;;;;;;;;
1985;[13393] BERRAHMA M. (1985);samp. 3;;ATLAS MOUNTAINS / ATLAS MOUNTAINS / ANTI-ATLAS / SIRWA;;30.77;-8.25;30.77;-8.25;;;OUTCROP;;;SUBAERIAL;VOLCANIC ROCK;BENMOREITE;;;;;NEOGENE;;;;;;;WHOLE ROCK;;;;;;;;;;58.19;0.46;;;;18.66;;;;;;;;;1.5;;4.44;;3.53;0.92;0.11;;;;;;4.3;NOT;;;5.52;;;;1.15;;;;;;;;;;;;;;;;;;;;;;;;;;;;;;;;;;;;;;;;;;;;;;;;;;;;;;;;;;;;;;;;;;;;;;;;;;;;;;;;;;;;;;;;;;;;;;;;;;;;;;;;;;;;;;;;;;;;;;;;;;;;;;;;;;;;;;;;;;;;;;;;;;;;;;;;;;;;;;;;;;;;;;;;;;;;;;;;;;;;;;;;;;;;;;;;;;;;;;;;;;;;;;;;;;;;;;;;;;;;;;;;;;;;;;;;;;;;;;;;;;;;;;;;;;;;;;;;;;;;;;;;
1976;[13482] INNOCENTI F. (1976);samp. AG 37;;ANATOLIA-IRAN BELT / TURKEY / EASTERN ANATOLIAN VOLCANIC BELT / NEMRUT;LAKE VAN AREA, NORTHEASTERN BASE OF NEMRUT;38.67;42.2;38.67;42.2;;;OUTCROP;;;SUBAERIAL;VOLCANIC ROCK;BENMOREITE;;LAVA FLOW;;;NEOGENE;;;;;;;WHOLE ROCK;;;;;;;;;;58.76;1.23;;;;17.05;;;;;;;;;2.77;;4.14;;3.88;1.63;0.21;;;;;;3.58;XRF;;;5.89;0.42;;;;;;;;;;;;0.44;;;;;;;;;;;;;;;;;;;;;;;;;;;;;;;;;;;;;;;;;;;;;;;;;;;;;;;;;;;;;;;;;;;;;;;;;;;;;;;;;;;;;;;;;;;;;;;;;;;;;;;;;;;;;;;;;;;;;;;;;;;;;;;;;;;;;;;;;;;;;;;;;;;;;;;;;;;;;;;;;;;;;;;;;;;;;;;;;;;;;;;;;;;;;;;;;;;;;;;;;;;;;;;;;;;;;;;;;;;;;;;;;;;;;;;;;;;;;;;;;;;;;;;;;;;;;;;
1976;[13482] INNOCENTI F. (1976);samp. AG 7;;ANATOLIA-IRAN BELT / TURKEY / EASTERN ANATOLIAN VOLCANIC BELT;LAKE VAN AREA, NORTH OF ERCIS;39.02;43.36;39.02;43.36;;;OUTCROP;;;SUBAERIAL;VOLCANIC ROCK;BENMOREITE;;LAVA FLOW;;;NEOGENE;;;;;;;WHOLE ROCK;;;;;;;;;;;;;;;;;;;;;;;;;;;;;;;;;;;;;;;;;;;;;;;;;;;;;;;;3.94;;;;;;;;;;;;;;;;;;;;;;;;;;;;;;;;;;;;;;;;;;;;;;;;;;;;;;;;;;;;;;;;;;;;;;;;;;;;;;;;;;;;;;;;;;;;;;;;;;;;;;;;;;;;;;;;;;;;;;;;;;;;;;;;;;;;;;;;;;;;;;;;;;;;;;;;;;;;;;;;;;;;;;;;;;;;;;;;;;;;;;;;;;;;;;;;;;;;;;;;;;;;;;;;;;;;;;;;;;;;;;;;;;;;;;;;;;;;;;;;;;;;5.6;K-AR;;;;;;;
2009;[13636] HAMELIN B.(2009)  [GeoReM [4790] ];samp. PUY9;;EUROPEAN OROGENIC BELT - CENOZOIC/QUATERNARY / FRANCE / FRENCH MASSIF CENTRAL / CHAINE DES PUYS;;45.8033;2.9875;45.8033;2.9875;;;OUTCROP;;;SUBAERIAL;VOLCANIC ROCK;BENMOREITE;;;;;QUATERNARY;;;;;FRESH;;WHOLE ROCK;;;;;;;;;;54.31;1.32;;;;18.49;;;;;;;;7.78;;;;;5.27;2.31;0.21;;;;;;3.3;ICPAES;;;5.32;0.72;;;;;;;;;;;;0.95;;;;15.3;3.54;;;;;;;;;;;;;;;;;;;;6.8;ICPMS;;;;;;;;;;;;10.6;ICPMS;;;8.5;ICPMS;;;14.1;ICPMS;;;106;ICPMS;;;22.2;ICPMS;;;;;;;86.4;ICPMS;;;;;819;ICPMS;;;;;38.1;ICPMS;;;454;ICPMS;;;123;ICPMS;;;;;;;;;;;;;;;;;1026;ICPMS;;;93.1;ICPMS;;;180;ICPMS;;;18.4;64.6;ICPMS;;;;;10.68;ICPMS;;;2.95;ICPMS;;;8.25;ICPMS;;;1.22;ICPMS;;;6.8;ICPMS;;;1.28;3.33;ICPMS;;;;3.38;ICPMS;;;0.52;9.78;;;;;;;;5.78;ICPMS;;;;;;12.77;ICPMS;;;3.31;ICPMS;;;0.512799;;;;;0.704139;;;;19.322;TIMS;;;;15.665;TIMS;;;;;39.536;TIMS;;;;;;;;;;;;;;;;;;;;;1.8;;;;;;;;;;;;;;;;;;;;;;;;;;;;;;;;;;;;;;;;
2009;[13636] HAMELIN B.(2009)  [GeoReM [4790] ];samp. PUY17;;EUROPEAN OROGENIC BELT - CENOZOIC/QUATERNARY / FRANCE / FRENCH MASSIF CENTRAL / CHAINE DES PUYS;;45.8606;3.0058;45.8606;3.0058;;;OUTCROP;;;SUBAERIAL;VOLCANIC ROCK;BENMOREITE;;;;;QUATERNARY;;;;;FRESH;;WHOLE ROCK;;;;;;;;;;57.47;1.09;;;;18.55;;;;;;;;6.61;;;;;4.45;1.92;0.21;;;;;;3.38;ICPAES;;;5.53;0.57;;;;;;;;;;;;0.45;;;;16.1;3.88;;;;;;;;;;;;;;;;;;;;5;ICPMS;;;;;;;;;;;;6.1;ICPMS;;;5.7;ICPMS;;;11.9;ICPMS;;;95;ICPMS;;;20.1;ICPMS;;;;;;;96.7;ICPMS;;;;;715;ICPMS;;;;;36;ICPMS;;;466;ICPMS;;;115;ICPMS;;;;;;;;;;;;;;;;;1038;ICPMS;;;91.1;ICPMS;;;163;ICPMS;;;17.7;59.3;ICPMS;;;;;9.67;ICPMS;;;2.62;ICPMS;;;7.76;ICPMS;;;1.15;ICPMS;;;6.07;ICPMS;;;1.18;3.42;ICPMS;;;;3.22;ICPMS;;;0.47;10.22;;;;;;;;7.86;ICPMS;;;;;;13.28;ICPMS;;;3.49;ICPMS;;;0.512781;;;;;0.704171;;;;19.364;TIMS;;;;15.657;TIMS;;;;;39.387;TIMS;;;;;;;;;;;;;;;;;;;;;2.7;;;;;;;;;;;;;;;;;;;;;;;;;;;;;;;;;;;;;;;;
2009;[13636] HAMELIN B.(2009)  [GeoReM [4790] ];samp. PUY14;;EUROPEAN OROGENIC BELT - CENOZOIC/QUATERNARY / FRANCE / FRENCH MASSIF CENTRAL / CHAINE DES PUYS;;45.8675;3.0189;45.8675;3.0189;;;OUTCROP;;;SUBAERIAL;VOLCANIC ROCK;BENMOREITE;;;;;QUATERNARY;;;;;FRESH;;WHOLE ROCK;;;;;;;;;;57.21;1.08;;;;18.4;;;;;;;;6.7;;;;;4.53;2.01;0.19;;;;;;3.53;ICPAES;;;5.6;0.6;;;;;;;;;;;;0.15;;;;16.2;3.83;;;;;;;;;;;;;;;;;;;;5.4;ICPMS;;;;;;;;;;;;6.3;ICPMS;;;6.2;ICPMS;;;11.8;ICPMS;;;97;ICPMS;;;20.5;ICPMS;;;;;;;90.7;ICPMS;;;;;742;ICPMS;;;;;36.9;ICPMS;;;500;ICPMS;;;135;ICPMS;;;;;;;;;;;;;;;;;1037;ICPMS;;;91.3;ICPMS;;;171;ICPMS;;;17.5;59.9;ICPMS;;;;;9.82;ICPMS;;;2.75;ICPMS;;;7.65;ICPMS;;;1.1;ICPMS;;;6.34;ICPMS;;;1.2;3.31;ICPMS;;;;3.25;ICPMS;;;0.5;10.76;;;;;;;;7.68;ICPMS;;;;;;13.51;ICPMS;;;3.54;ICPMS;;;0.512779;;;;;0.704181;;;;19.364;TIMS;;;;15.665;TIMS;;;;;39.4;TIMS;;;;;;;;;;;;;;;;;;;;;5.3;;;;;;;;;;;;;;;;;;;;;;;;;;;;;;;;;;;;;;;;
2009;[13787] SMITH D. J.(2009)  [GeoReM [4914] ];samp. SV11;;SOLOMON ISLAND ARC / SOLOMON ISLAND ARC - CENTRAL PROVINCE / SAVO;POGHOROVURAGHALA FAN;-9.17;159.83;-9.17;159.83;;;OUTCROP;;;SUBAQUATIC;VOLCANIC ROCK;BENMOREITE;;;;;;;;;;;;WHOLE ROCK;;;;;;;;;;56.7608651750459;0.668596688946568;;;;17.7627180048491;;;;;;;;6.76579932993691;;;;;6.85561082546704;2.80411447155202;0.111765416659725;;;;;;1.87805816208573;XRF;;;4.9995065845109;0.210558061742874;;;;;;;;;;;;0.207417751673745;;;;;;;;;;;;;;;;;;;;;;;;;21.48;XRF;;;;258.22;XRF;;;0;XRF;;;16.74;XRF;;;0;XRF;;;9.75;XRF;;;49.69;XRF;;;21.94;XRF;;;;;;;26.43;XRF;;;;;836.98;XRF;;;;;18.69;XRF;;;105.28;XRF;;;0;XRF;;;;;;;;;;;;;;;;;347.82;XRF;;;8.01;XRF;;;26.18;XRF;;;;12.12;XRF;;;;;;;;;;;;;;;;;;;;;;;;;;;;;;;;;;;;;;;;;;;;0;XRF;;;;;;6.3;XRF;;;0;XRF;;;;;;;;;;;;;;;;;;;;;;;;;;;;;;;;;;;;;;;;;;;;;;;;;;;;;;;;;;;;;;;;;;;;;;;;;;;;;;;;;;;;;
2009;[13787] SMITH D. J.(2009)  [GeoReM [4914] ];samp. SV12;96240;SOLOMON ISLAND ARC / SOLOMON ISLAND ARC - CENTRAL PROVINCE / SAVO;POGHOROVURAGHALA FAN;-9.17;159.83;-9.17;159.83;;;OUTCROP;;;SUBAQUATIC;VOLCANIC ROCK;BENMOREITE;;;;;;;;;;;;WHOLE ROCK;;;;;;;;;;58.5497191827978;0.523595910231341;;;;17.6473571294978;;;;;;;;5.8360798383388;;;;;6.47884671689525;1.9287811889056;0.12825631522531;;;;;;1.88265334383213;XRF;;;5.32911202758625;0.192879668754123;;;;;;;;;;;;0.572734683839334;;;;;;;;;;;;;;;;;;;;;;;;;12.9263341902791;XRF;;;;183.446776240129;XRF;;;29.2392866682961;XRF;;;15.2037138253559;XRF;;;0;XRF;;;7.93736898365519;XRF;;;45.8580121632749;XRF;;;21.796146658905;XRF;;;;;;;31.0517079624901;XRF;;;;;862.931903516558;XRF;;;;;16.4541073987005;XRF;;;102.15811863182;XRF;;;1.90870766604447;XRF;;;;;;;;;;;;;;;;;425.437362807677;XRF;;;9.91478085683;XRF;9.6025;ICPMS;19.5569507164024;XRF;19.8425;ICPMS;2.58;10.4767653688006;XRF;11.275;ICPMS;;;2.2925;ICPMS;;;0.759533975920806;ICPMS;;;2.42505465539267;ICPMS;;;0.385831837061376;ICPMS;;;2.21956062847577;ICPMS;;;0.5125;1.37211461235894;ICPMS;;;0.2;1.5075;ICPMS;;;0.22;;;;;;;;;0;XRF;;;;;;0;XRF;;;0;XRF;;;0.51297;;;;;0.70413;;;;18.455;MC_ICPMS;;;;15.521;MC_ICPMS;;;;;38.268;MC_ICPMS;;;;;;;;;;;;;;;;;;;;;;;;;;;;;;;;;;;;;;;;;;;;;;;;;;;;;;;;;;;;;
2009;[13787] SMITH D. J.(2009)  [GeoReM [4914] ];samp. SV13;;SOLOMON ISLAND ARC / SOLOMON ISLAND ARC - CENTRAL PROVINCE / SAVO;POGHOROVURAGHALA FAN;-9.17;159.83;-9.17;159.83;;;OUTCROP;;;SUBAQUATIC;VOLCANIC ROCK;BENMOREITE;;;;;;;;;;;;WHOLE ROCK;;;;;;;;;;61.8707396828884;0.488348299687747;;;;17.06229161358;;;;;;;;5.02301108250254;;;;;5.47149421486883;1.71420219482229;0.0926865140223682;;;;;;2.00023477035369;XRF;;;5.08280883348471;0.176403365397411;;;;;;;;;;;;0.334755832673228;;;;;;;;;;;;;;;;;;;;;;;;;15.74;XRF;;;;148.35;XRF;;;9.35;XRF;;;12.4;XRF;;;0;XRF;;;34.65;XRF;;;40.31;XRF;;;20.66;XRF;;;;;;;33.71;XRF;;;;;826.85;XRF;;;;;14.57;XRF;;;117.11;XRF;;;3.15;XRF;;;;;;;;;;;;;;;;;438.64;XRF;;;7.73;XRF;;;22.93;XRF;;;;10.26;XRF;;;;;;;;;;;;;;;;;;;;;;;;;;;;;;;;;;;;;;;;;;;;16.5;XRF;;;;;;8.4;XRF;;;0;XRF;;;;;;;;;;;;;;;;;;;;;;;;;;;;;;;;;;;;;;;;;;;;;;;;;;;;;;;;;;;;;;;;;;;;;;;;;;;;;;;;;;;;;
2009;[13787] SMITH D. J.(2009)  [GeoReM [4914] ];samp. SV352;;SOLOMON ISLAND ARC / SOLOMON ISLAND ARC - CENTRAL PROVINCE / SAVO;FLANK KALAKA CRYPTODOME;-9.17;159.83;-9.17;159.83;;;OUTCROP;;;SUBAQUATIC;VOLCANIC ROCK;BENMOREITE;;;;;;;;;;;;WHOLE ROCK;;;;;;;;;;56.9254745112618;0.68692860113275;;;;18.1189862907479;;;;;;;;6.84937503738162;;;;;6.7398646806793;2.62824856085574;0.131412428042787;;;;;;2.04386147554425;XRF;;;4.85827764279394;0.227980651680289;;;;;;;;;;;;0.443647966431419;;;;;;;;;;;;;;;;;;;;;;;;;16.2172314637023;XRF;;;;169.160005439398;XRF;;;0;XRF;;;18.3588958138971;XRF;;;0;XRF;;;50.2300364729341;XRF;;;56.0028539455208;XRF;;;21.6829886169271;XRF;;;;;;;29.7852614328883;XRF;;;;;732.829978472509;XRF;;;;;18.5480570569579;XRF;;;102.767973856709;XRF;;;2.61343006778076;XRF;;;;;;;;;;;;;;;;;441.074543460563;XRF;;;12.6049137799456;XRF;;;20.8530467693121;XRF;;;;12.388136903464;XRF;;;;;;;;;;;;;;;;;;;;;;;;;;;;;;;;;;;;;;;;;;;;0;XRF;;;;;;0;XRF;;;0;XRF;;;;;;;;;;;;;;;;;;;;;;;;;;;;;;;;;;;;;;;;;;;;;;;;;;;;;;;;;;;;;;;;;;;;;;;;;;;;;;;;;;;;;