Year;CITATION;SAMPLE NAME;UNIQUE_ID;LOCATION;LOCATION COMMENT;LATITUDE (MIN.);LONGITUDE (MIN.);LATITUDE (MAX.);LONGITUDE (MAX.);ELEVATION (MIN.);ELEVATION (MAX.);SAMPLING TECHNIQUE;DRILLING DEPTH (MIN.);DRILLING DEPTH (MAX.);LAND/SEA (SAMPLING);ROCK TYPE;ROCK NAME;ROCK TEXTURE;SAMPLE COMMENT;AGE (MIN.);AGE (MAX.);GEOLOGICAL AGE;GEOLOGICAL AGE PREFIX;ERUPTION DAY;ERUPTION MONTH;ERUPTION YEAR;ALTERATION;ALTERATION TYPE;TYPE OF MATERIAL;MINERAL / COMPONENT;SPOT (MINERAL);CRYSTAL;RIM / CORE (MINERAL GRAINS);PRIMARY/SECONDARY;INCLUSION TYPE;MINERAL (INCLUSION);HOSTMINERAL (INCLUSION);HEATING;SIO2(WT%);TIO2(WT%);ZRO2(WT%);HFO2(WT%);THO2(WT%);AL2O3(WT%);CR2O3(WT%);LA2O3(WT%);CE2O3(WT%);ND2O3(WT%);SM2O3(WT%);V2O3(WT%);NB2O5(WT%);FE2O3T(WT%);FE2O3(WT%);FEOT(WT%);FEO(WT%);FET(WT%);CAO(WT%);MGO(WT%);MNO(WT%);BAO(WT%);SRO(WT%);NIO(WT%);ZNO(WT%);RB2O(WT%);K2O(WT%);;;;NA2O(WT%);P2O5(WT%);AS2O5(WT%);H2O(WT%);H2OP(WT%);H2OM(WT%);CO2(WT%);C(WT%);F(WT%);CL(WT%);OH(WT%);SO3(WT%);S(WT%);LOI(WT%);TI(WT%);CA(WT%);K(WT%);LI(PPM);BE(PPM);B(PPM);F(PPM);P(PPM);S(PPM);CL(PPM);AR40(AT/G);;;;AR40(CCMSTP/G);;;;AR40(MOL/G);;;;AR40(PPB);K(PPM);SC(PPM);;;;TI(PPM);V(PPM);;;;CR(PPM);;;;CO(PPM);;;;NI(PPM);;;;CU(PPM);;;;ZN(PPM);;;;GA(PPM);;;;GE(PPM);AS(PPM);AS(PPB);SE(PPM);RB(PPM);;;;;;SR(PPM);;;;;;Y(PPM);;;;ZR(PPM);;;;NB(PPM);;;;MO(PPM);AG(PPM);CD(PPM);IN(PPM);SN(PPM);SB(PPM): altern. values or methods;;;;TE(PPM);CS(PPM): altern. values or methods;;;;BA(PPM): altern. values or methods;;;;LA(PPM): altern. values or methods;;;;CE(PPM): altern. values or methods;;;;PR(PPM);ND(PPM): altern. values or methods;;;;;;SM(PPM): altern. values or methods;;;;EU(PPM): altern. values or methods;;;;GD(PPM): altern. values or methods;;;;TB(PPM): altern. values or methods;;;;DY(PPM): altern. values or methods;;;;HO(PPM);ER(PPM): altern. values or methods;;;;TM(PPM);YB(PPM): altern. values or methods;;;;LU(PPM);HF(PPM);TA(PPM);W(PPM);RE(PPM);AU(PPM);HG(PPM);HG(PPB);TL(PPM);PB(PPM): altern. values or methods;;;;BI(PPM);PO210_ACT(DPM/G);RA226_ACT(DPM/G);TH(PPM): altern. values or methods;;;;U(PPM): altern. values or methods;;;;ND143_ND144;ND143_ND144_INI;EPSILON_ND;EPSILON_ND_INI;SM147_ND144;SR87_SR86;SR87_SR86_INI;EPSILON_SR_INI;RB87_SR86;PB206_PB204: altern. values or methods;;;;PB206_PB204_INI;PB207_PB204: altern. values or methods;;;;PB207_PB204_INI;PB207_PB206;PB208_PB204: altern. values or methods;;;;PB208_PB204_INI;PB208_PB206;HF176_HF177;LU176_HF177;AR38_AR36;AR40_AR36;AR40_AR36_INI;PB206_U238;PB207_U235;RA226_TH230_ACT;PA231_U235_ACT;TH230_TH232_ACT;TH230_U238_ACT;TH232_PB204;U234_U238_ACT;U235_PB204;U238_PB204;U238_TH232_ACT;D7LI(VS LSVEC);D13C(VS PDB);D18O(PER MIL);D18O(VS SMOW);D18O(VS VSMOW);D34S(VS VCDT);ALBITE(MOL%);ANORTHITE(MOL%);CA OLIVINE(MOL%);CHROMITE(MOL%);ENSTATITE(MOL%);FAYALITE(MOL%);FORSTERITE(MOL%);FERROSILITE(MOL%);HEMATITE(MOL%);HERCYNITE(MOL%);ILMENITE(MOL%);MAGNESIOFERRITE(MOL%);MONTICELLITE(MOL%);MAGNETITE(MOL%);ORTHOCLASE(MOL%);PICROCHROMITE(MOL%);SPINEL(MOL%);TEPHROITE(MOL%);ULVOSPINEL(MOL%);WOLLASTONITE(MOL%);AGE(KA): altern. values or methods;;;;;;AGE(MA): altern. values or methods;;;;;;AGE_PB207_U235(MA);AGE_PB206_U238(MA);
1997;[1627] WOLFE E. W. (1997);samp. JQ-10;;HAWAIIAN ISLANDS / HAWAII / MAUNA KEA;KUKUIHAELE QUADRANGLE;19.75;-155.5;19.88;-155.62;;;OUTCROP;;;SUBAERIAL;VOLCANIC ROCK;BENMOREITE;;;;;;;;;;;;WHOLE ROCK;;;;;;;;;;54.9;1.39;;;;17.4;;;;;;;;9.17;;;;;4.46;2.22;0.23;;;;;;2.74;XRF;;;5.6;0.98;;0;;;0;;;;;;;;;;;;;;;;;;;;;;;;;;;;;;;;;;;;;;;;;;;;;;;;;;;;;;;;;;;;;;;;;;;;;;;;;;;;;;;;;;;;;;;;;;;;;;;;;;;;;;;;;;;;;;;;;;;;;;;;;;;;;;;;;;;;;;;;;;;;;;;;;;;;;;;;;;;;;;;;;;;;;;;;;;;;;;;;;;;;;;;;;;;;;;;;;;;;;;;;;;;;;;;;;;;;;;;;;;;;;;;;;;;;;;;;;;;;;;;;;;;;;;;;;;;;;;;;;;;;;;
1997;[1627] WOLFE E. W. (1997);samp. 85G034;;HAWAIIAN ISLANDS / HAWAII / MAUNA KEA / LAUPAHOEHOE SERIES / POST-SHIELD STAGE;NOHONAOHAE QUADRANGLE;19.63;-155.62;19.75;-155.75;;;OUTCROP;;;SUBAERIAL;VOLCANIC ROCK;BENMOREITE;;;;;;;;;;;;WHOLE ROCK;;;;;;;;;;;;;;;;;;;;;;;;;;;;;;;;;;;;2.579;AES;;;;;;;;;;;;;;;;;;;;;;;;;;;;;;;;;;;2.488E-13;MS_ID;2.271E-13;MS_ID;;;;;;;;;;;;;;;;;;;;;;;;;;;;;;;;;;;;;;;;;;;;;;;;;;;;;;;;;;;;;;;;;;;;;;;;;;;;;;;;;;;;;;;;;;;;;;;;;;;;;;;;;;;;;;;;;;;;;;;;;;;;;;;;;;;;;;;;;;;;;;;;;;;;;;;;;;;;;;;;;;;;;;;;;;;;;;;;;;;;;;;;;;;;;;;;;;;;;;;;;;;;;;;;;;;;;;;;;;;66;K-AR;;;;;;;;;;;;;
1987;[2056] RIDGEWAY J. (1987);samp. M2;40087;SOLOMON ISLAND ARC / SOLOMON ISLAND ARC - WESTERN PROVINCE / SHORTLAND ISLANDS - TREASURY ISLAND / OLDER SERIES;MONO;-6.5;155.5;-7.5;156.5;;;OUTCROP;;;SUBAERIAL;VOLCANIC ROCK;BENMOREITE;;;;;;;;;;;;WHOLE ROCK;;;;;;;;;;57.81;2.39;;;;13.82;;;;;;;;;1.1;;5.08;;6.68;1.72;0.1;;;;;;2.02;NOT;;;7;0.53;;;;0.4;;;;;;;;1.65;;;;;;;;;;;;;;;;;;;;;;;;;;;;;;;;;;;;;;;;;;;;;;;;;;;;;;;;;;;;;;;;;;;;;;;;;;;;;;;;;;;;;;;;;;;;;;;;;;;;;;;;;;;;;;;;;;;;;;;;;;;;;;;;;;;;;;;;;;;;;;;;;;;;;;;;;;;;;;;;;;;;;;;;;;;;;;;;;;;;;;;;;;;;;;;;;;;;;;;;;;;;;;;;;;;;;;;;;;;;;;;;;;;;;;;;;;;;;;;;;;;;;;;;;;;;;;;
1998;[2414] EWART A. (1998);samp. SMG126;;ETENDEKA PROVINCE / SOUTHERN ETENDEKA PROVINCE - NAMIBIA;GOBOBOSEB MOUNTAINS;-21.09;14.01;-21.57;14.38;;;OUTCROP;;;SUBAERIAL;VOLCANIC ROCK;BENMOREITE, NEPHELINE;;;132000000;132000000;CRETACEOUS;;;;;;;MINERAL / COMPONENT (INCL. GROUNDMASS);AEGIRINE;;;;PRIMARY;;;;;49.45;0.44;0.25;;;0.17;;;;;;;;;3.55;;22.81;;18.48;4.38;0.41;;;;;;;;;;1.07;;;;;;;;;;;;;;;;;;;;;;;;;;;;;;;;;;;;;;;;;;;;;;;;;;;;;;;;;;;;;;;;;;;;;;;;;;;;;;;;;;;;;;;;;;;;;;;;;;;;;;;;;;;;;;;;;;;;;;;;;;;;;;;;;;;;;;;;;;;;;;;;;;;;;;;;;;;;;;;;;;;;;;;;;;;;;;;;;;;;;;;;;;;;;;;;;;;;;;;;;;;;;;;;;;;;;;;;;;;;;;;;;;;;;;;;;;;;;;;;;;;;;;;;;;;;;;;;;;;;;;;;;;;;
1998;[2414] EWART A. (1998);samp. SMG126;;ETENDEKA PROVINCE / SOUTHERN ETENDEKA PROVINCE - NAMIBIA;GOBOBOSEB MOUNTAINS;-21.09;14.01;-21.57;14.38;;;OUTCROP;;;SUBAERIAL;VOLCANIC ROCK;BENMOREITE, NEPHELINE;;;132000000;132000000;CRETACEOUS;;;;;;;MINERAL / COMPONENT (INCL. GROUNDMASS);AEGIRINE;;;;PRIMARY;;;;;48.97;0.51;0.8;;;0.13;;;;;;;;;6.22;;20.08;;16.95;3.61;0.3;;;;;;;;;;2.36;;;;;;;;;;;;;;;;;;;;;;;;;;;;;;;;;;;;;;;;;;;;;;;;;;;;;;;;;;;;;;;;;;;;;;;;;;;;;;;;;;;;;;;;;;;;;;;;;;;;;;;;;;;;;;;;;;;;;;;;;;;;;;;;;;;;;;;;;;;;;;;;;;;;;;;;;;;;;;;;;;;;;;;;;;;;;;;;;;;;;;;;;;;;;;;;;;;;;;;;;;;;;;;;;;;;;;;;;;;;;;;;;;;;;;;;;;;;;;;;;;;;;;;;;;;;;;;;;;;;;;;;;;;;
1998;[2414] EWART A. (1998);samp. SMG126;;ETENDEKA PROVINCE / SOUTHERN ETENDEKA PROVINCE - NAMIBIA;GOBOBOSEB MOUNTAINS;-21.09;14.01;-21.57;14.38;;;OUTCROP;;;SUBAERIAL;VOLCANIC ROCK;BENMOREITE, NEPHELINE;;;132000000;132000000;CRETACEOUS;;;;;;;MINERAL / COMPONENT (INCL. GROUNDMASS);AEGIRINE;;;;PRIMARY;;;;;49.37;0.69;3.44;;;0.23;;;;;;;;;7.17;;18.12;;13.36;2.6;0.27;;;;;;;;;;4.64;;;;;;;;;;;;;;;;;;;;;;;;;;;;;;;;;;;;;;;;;;;;;;;;;;;;;;;;;;;;;;;;;;;;;;;;;;;;;;;;;;;;;;;;;;;;;;;;;;;;;;;;;;;;;;;;;;;;;;;;;;;;;;;;;;;;;;;;;;;;;;;;;;;;;;;;;;;;;;;;;;;;;;;;;;;;;;;;;;;;;;;;;;;;;;;;;;;;;;;;;;;;;;;;;;;;;;;;;;;;;;;;;;;;;;;;;;;;;;;;;;;;;;;;;;;;;;;;;;;;;;;;;;;;
1998;[2414] EWART A. (1998);samp. SMG126;;ETENDEKA PROVINCE / SOUTHERN ETENDEKA PROVINCE - NAMIBIA;GOBOBOSEB MOUNTAINS;-21.09;14.01;-21.57;14.38;;;OUTCROP;;;SUBAERIAL;VOLCANIC ROCK;BENMOREITE, NEPHELINE;;;132000000;132000000;CRETACEOUS;;;;;;;MINERAL / COMPONENT (INCL. GROUNDMASS);AEGIRINE;;;;PRIMARY;;;;;49.24;0.64;6.22;;;0.11;;;;;;;;;6.44;;18.1;;10.44;1.79;0.27;;;;;;;;;;6.07;;;;;;;;;;;;;;;;;;;;;;;;;;;;;;;;;;;;;;;;;;;;;;;;;;;;;;;;;;;;;;;;;;;;;;;;;;;;;;;;;;;;;;;;;;;;;;;;;;;;;;;;;;;;;;;;;;;;;;;;;;;;;;;;;;;;;;;;;;;;;;;;;;;;;;;;;;;;;;;;;;;;;;;;;;;;;;;;;;;;;;;;;;;;;;;;;;;;;;;;;;;;;;;;;;;;;;;;;;;;;;;;;;;;;;;;;;;;;;;;;;;;;;;;;;;;;;;;;;;;;;;;;;;;
1998;[2414] EWART A. (1998);samp. SMG126;;ETENDEKA PROVINCE / SOUTHERN ETENDEKA PROVINCE - NAMIBIA;GOBOBOSEB MOUNTAINS;-21.09;14.01;-21.57;14.38;;;OUTCROP;;;SUBAERIAL;VOLCANIC ROCK;BENMOREITE, NEPHELINE;;;132000000;132000000;CRETACEOUS;;;;;;;MINERAL / COMPONENT (INCL. GROUNDMASS);AEGIRINE;;;;PRIMARY;;;;;49.54;0.4;9.38;;;0.08;;;;;;;;;7.22;;16.35;;8.24;1.39;0.25;;;;;;;;;;7.64;;;;;;;;;;;;;;;;;;;;;;;;;;;;;;;;;;;;;;;;;;;;;;;;;;;;;;;;;;;;;;;;;;;;;;;;;;;;;;;;;;;;;;;;;;;;;;;;;;;;;;;;;;;;;;;;;;;;;;;;;;;;;;;;;;;;;;;;;;;;;;;;;;;;;;;;;;;;;;;;;;;;;;;;;;;;;;;;;;;;;;;;;;;;;;;;;;;;;;;;;;;;;;;;;;;;;;;;;;;;;;;;;;;;;;;;;;;;;;;;;;;;;;;;;;;;;;;;;;;;;;;;;;;;
1998;[2414] EWART A. (1998);samp. SMG126;;ETENDEKA PROVINCE / SOUTHERN ETENDEKA PROVINCE - NAMIBIA;GOBOBOSEB MOUNTAINS;-21.09;14.01;-21.57;14.38;;;OUTCROP;;;SUBAERIAL;VOLCANIC ROCK;BENMOREITE, NEPHELINE;;;132000000;132000000;CRETACEOUS;;;;;;;MINERAL / COMPONENT (INCL. GROUNDMASS);AEGIRINE;;;;PRIMARY;;;;;49.79;1;11.41;;;0.09;;;;;;;;;5.93;;16.33;;4.7;0.88;0.18;;;;;;;;;;9.27;;;;;;;;;;;;;;;;;;;;;;;;;;;;;;;;;;;;;;;;;;;;;;;;;;;;;;;;;;;;;;;;;;;;;;;;;;;;;;;;;;;;;;;;;;;;;;;;;;;;;;;;;;;;;;;;;;;;;;;;;;;;;;;;;;;;;;;;;;;;;;;;;;;;;;;;;;;;;;;;;;;;;;;;;;;;;;;;;;;;;;;;;;;;;;;;;;;;;;;;;;;;;;;;;;;;;;;;;;;;;;;;;;;;;;;;;;;;;;;;;;;;;;;;;;;;;;;;;;;;;;;;;;;;
1998;[2414] EWART A. (1998);samp. SMG126;;ETENDEKA PROVINCE / SOUTHERN ETENDEKA PROVINCE - NAMIBIA;GOBOBOSEB MOUNTAINS;-21.09;14.01;-21.57;14.38;;;OUTCROP;;;SUBAERIAL;VOLCANIC ROCK;BENMOREITE, NEPHELINE;;;132000000;132000000;CRETACEOUS;;;;;;;MINERAL / COMPONENT (INCL. GROUNDMASS);AEGIRINE;;;;PRIMARY;;;;;49.3;0.92;12.75;;;0.1;;;;;;;;;6.26;;15.75;;3.51;0.47;0.13;;;;;;;;;;9.92;;;;;;;;;;;;;;;;;;;;;;;;;;;;;;;;;;;;;;;;;;;;;;;;;;;;;;;;;;;;;;;;;;;;;;;;;;;;;;;;;;;;;;;;;;;;;;;;;;;;;;;;;;;;;;;;;;;;;;;;;;;;;;;;;;;;;;;;;;;;;;;;;;;;;;;;;;;;;;;;;;;;;;;;;;;;;;;;;;;;;;;;;;;;;;;;;;;;;;;;;;;;;;;;;;;;;;;;;;;;;;;;;;;;;;;;;;;;;;;;;;;;;;;;;;;;;;;;;;;;;;;;;;;;
1980;[2686] THOMPSON R. N. (1980);samp. 914;47653;NORTH ATLANTIC IGNEOUS PROVINCE (NAIP) / BRITISH TERTIARY VOLCANIC PROVINCE / SKYE MAIN LAVA SERIES;SKYE, BRACADALE GROUP, WATERFALL IN STREAM RUNNING NNW FROM STRUAN, BRACADALE;57.3667;-6.4;57.3667;-6.4;;;OUTCROP;;;SUBAERIAL;VOLCANIC ROCK;BENMOREITE;;;;;;;;;;;;WHOLE ROCK;;;;;;;;;;;;;;;;;;;;;;;;;;;;;;;;;;;;;;;;;;;;;;;;;;;;;;;;;;;;;;;;;;;;;;;;;;;;;;;;;;;;;;;;;;;;;;;;;;;;;;;;;;;;;;;;;;;41;INAA;;;;;740;INAA;;;;;59;INAA;;;346;INAA;;;36;INAA;;;;;;;;;;;;;;;;;983;INAA;;;44.33;INAA;;;114.38;INAA;;;;67.79;INAA;;;;;14.13;INAA;;;4.54;INAA;;;10.76;INAA;;;1.72;INAA;;;;;;;;;;;;0.59;3.42;INAA;;;0.58;7.6;2.08;;;;;;;;;;;;;;3.68;INAA;;;;;;;;;;;;;;;;;;;;;;;;;;;;;;;;;;;;;;;;;;;;;;;;;;;;;;;;;;;;;;;;;;;;;;;;;;;;;;;;;;;;;;;;;
1980;[2686] THOMPSON R. N. (1980);samp. 986;47645;NORTH ATLANTIC IGNEOUS PROVINCE (NAIP) / BRITISH TERTIARY VOLCANIC PROVINCE / SKYE MAIN LAVA SERIES;SKYE, BRACADALE GROUP, ROADSIDE ON A863 AT COILLORE, BRACADALE;57.3667;-6.4;57.3667;-6.4;;;OUTCROP;;;SUBAERIAL;VOLCANIC ROCK;BENMOREITE;;;;;;;;;;;;WHOLE ROCK;;;;;;;;;;;;;;;;;;;;;;;;;;;;;;;;;;;;;;;;;;;;;;;;;;;;;;;;;;;;;;;;;;;;;;;;;;;;;;;;;;;;;;;;;;;;;;;;;;;;;;;;;;;;;;;;;;;70;INAA;;;;;481;INAA;;;;;61;INAA;;;405;INAA;;;59;INAA;;;;;;;;;;;;;;;;;;;;;;;;;137.87;INAA;;;;75.37;INAA;;;;;;;;;4.47;INAA;;;13.62;INAA;;;1.93;INAA;;;;;;;;;;;;0.71;5.42;INAA;;;0.69;10.93;4.58;;;;;;;;;;;;;;6.54;INAA;;;;;;;;;;;;;;;;;;;;;;;;;;;;;;;;;;;;;;;;;;;;;;;;;;;;;;;;;;;;;;;;;;;;;;;;;;;;;;;;;;;;;;;;;
1980;[2686] THOMPSON R. N. (1980);samp. 916;47655;NORTH ATLANTIC IGNEOUS PROVINCE (NAIP) / BRITISH TERTIARY VOLCANIC PROVINCE / SKYE MAIN LAVA SERIES;SKYE, BRACADALE GROUP, STREAM RUNNING NNW FROM STRUAN, BRACADALE;57.3667;-6.4;57.3667;-6.4;;;OUTCROP;;;SUBAERIAL;VOLCANIC ROCK;BENMOREITE;;;;;;;;;;;;WHOLE ROCK;;;;;;;;;;;;;;;;;;;;;;;;;;;;;;;;;;;;;;;;;;;;;;;;;;;;;;;;;;;;;;;;;;;;;;;;;;;;;;;;;;;;;;;;;;;;;;;;;;;;;;;;;;;;;;;;;;;61;INAA;;;;;659;INAA;;;;;39;INAA;;;354;INAA;;;18;INAA;;;;;;;;;;;;;;;;;;;;;56.07;INAA;;;139.01;INAA;;;;69.8;INAA;;;;;12.3;INAA;;;3.23;INAA;;;6.63;INAA;;;1.09;INAA;;;;;;;;;;;;0.45;2.43;INAA;;;0.35;6.45;0.65;;;;;;;;;;;;;;1.6;INAA;;;;;;;;;;;;;;;;;;;;;;;;;;;;;;;;;;;;;;;;;;;;;;;;;;;;;;;;;;;;;;;;;;;;;;;;;;;;;;;;;;;;;;;;;
1980;[2689] MOORBATH S. (1980);samp. SK916;47655;NORTH ATLANTIC IGNEOUS PROVINCE (NAIP) / BRITISH TERTIARY VOLCANIC PROVINCE / SKYE MAIN LAVA SERIES;SKYE, BRACADALE GROUP, STREAM RUNNING NNW FROM STRUAN, BRACADALE;57.3667;-6.4;57.3667;-6.4;;;OUTCROP;;;SUBAERIAL;VOLCANIC ROCK;BENMOREITE;;;;;CENOZOIC;;;;;;;WHOLE ROCK;;;;;;;;;;;;;;;;;;;;;;;;;;;;;;;;;;;;;;;;;;;;;;;;;;;;;;;;;;;;;;;;;;;;;;;;;;;;;;;;;;;;;;;;;;;;;;;;;;;;;;;;;;;;;;;;;;;60;XRF;;;;;646;XRF;;;;;;;;;;;;;;;;;;;;;;;;;;;;;;;;;;;;;;;;;;;;;;;;;;;;;;;;;;;;;;;;;;;;;;;;;;;;;;;;;;;;;;;;;;;;;;;;;;;;;;;;;;;;;0.70526;;;0.272;;;;;;;;;;;;;;;;;;;;;;;;;;;;;;;;;;;;;;;;;;;;;;;;;;;;;;;;;;;;;;;;;;;;;;;;;;
1981;[2690] DICKIN A. P. (1981);samp. SK914;47653;NORTH ATLANTIC IGNEOUS PROVINCE (NAIP) / BRITISH TERTIARY VOLCANIC PROVINCE / SKYE MAIN LAVA SERIES;SKYE, BRACADALE GROUP, WATERFALL IN STREAM RUNNING NNW FROM STRUAN, BRACADALE;57.3667;-6.4;57.3667;-6.4;;;OUTCROP;;;SUBAERIAL;VOLCANIC ROCK;BENMOREITE;;;;;CENOZOIC;;;;;;;WHOLE ROCK;;;;;;;;;;;;;;;;;;;;;;;;;;;;;;;;;;;;;;;;;;;;;;;;;;;;;;;;;;;;;;;;;;;;;;;;;;;;;;;;;;;;;;;;;;;;;;;;;;;;;;;;;;;;;;;;;;;;;;;;;;;;;;;;;;;;;;;;;;;;;;;;;;;;;;;;;;;;;;;;;;;;;;;;;;;;;;;;;;;;;;;;;;;;;;;;;;;;;;;;;;;;;;;;;;;9.8;XRF;;;;;;3.68;XRF;;;;;;;;;;;;;;;;15.244;TIMS;;;;14.903;TIMS;;;;;35.113;TIMS;;;;;;;;;;;;;;;;;;;;;;;;;;;;;;;;;;;;;;;;;;;;;;;;;;;;;;;;;;;;;
1994;[2852] DENIEL C.(1994)  [GeoReM [1241] ];samp. PV309;;EAST AFRICAN RIFT / ETHIOPIAN RIFT / AFAR DEPRESSION / MABLAS SERIES;DJIBOUTI;11.3986;43.2167;11.3986;43.2167;;;OUTCROP;;;SUBAERIAL;VOLCANIC ROCK;BENMOREITE;;;10000000;15000000;MIOCENE;;;;;;;WHOLE ROCK;;;;;;;;;;60.5;1.35;;;;14.67;;;;;;;;;5.9;;3.13;;3.42;1.38;0.3;;;;;;2.4;AAS;;;5.32;0.5;;;1.6;0.14;;;;;;;;;;;;;;;;;;;;;;;;;;;;;;;;;;;;;;;;;;;;;;;;;;4;XRF;;;;;;;;;;;;;;;;;;;51;XRF;;;;;286;XRF;;;;;58;XRF;;;455;XRF;;;52;XRF;;;;;;;;;;;;;;;;;1718;XRF;;;;;;;;;;;;;;;;;;;;;;;;;;;;;;;;;;;;;;;;;;;;;;;;;;;;;;;;;;;;;;;;7.67;TIMS_ID;;;1.92;TIMS_ID;;;0.51281;;;;;0.70459;;;;18.71;TIMS;;;;15.63;TIMS;;;;;39.21;TIMS;;;;;;;;;;;;;;;;;;;;;;;;;;;;;;;;;;;;;;;;;;;;;;;;;;;;;;;;;;;;;
1994;[2852] DENIEL C.(1994)  [GeoReM [1241] ];samp. PP749;159748;EAST AFRICAN RIFT / ETHIOPIAN RIFT / AFAR DEPRESSION / MOUSSA ALI;DORRA AREA;12.4592;42.4253;12.4592;42.4253;;;OUTCROP;;;SUBAERIAL;VOLCANIC ROCK;BENMOREITE;;;100000;1000000;QUATERNARY;;;;;;;WHOLE ROCK;;;;;;;;;;57.1;1.7;;;;15.2;;;;;;;;;4.55;;4.1;;5.35;2.67;0.28;;;;;;2.8;AAS;;;4.3;0.5;;;0.51;0.04;;;;;;;;;;;;;;;;;;;;;;;;;;;;;;;;;;;;;;;;;;;;;;;;;;24;XRF;;;;;;;;;;;;;;;;;;;61;XRF;;;;;393;XRF;;;;;70;XRF;;;437;XRF;;;69;XRF;;;;;;;;;;;;;;;;;734;XRF;;;;;;;;;;;;;;;;;;;;;;;;;;;;;;;;;;;;;;;;;;;;;;;;;;;;;;;;;;;;;;;;8.62;TIMS_ID;;;2.21;TIMS_ID;;;;;;;;;;;;;;;;;;;;;;;;;;;;;;;;;;;;;;;;;;;;;;;;;;;;;;;;;;;;;;;;;;;;;;;;;;;;;;;;;;;;;
1994;[2852] DENIEL C.(1994)  [GeoReM [1241] ];samp. PV239;;EAST AFRICAN RIFT / ETHIOPIAN RIFT / AFAR DEPRESSION / MOUSSA ALI;DJIBOUTI;12.4222;42.3917;12.4222;42.3917;;;OUTCROP;;;SUBAERIAL;VOLCANIC ROCK;BENMOREITE;;;100000;1000000;QUATERNARY;;;;;;;WHOLE ROCK;;;;;;;;;;59.5;1.24;;;;16.09;;;;;;;;;1.85;;6.75;;3.67;2.05;0.23;;;;;;3.02;AAS;;;5.37;0.37;;;;0.05;;;;;;;;;;;;;;;;;;;;;;;;;;;;;;;;;;;;;;;;;;;;;;;;;;10;XRF;;;;;;;;;;;;;;;;;;;71;XRF;;;;;320;XRF;;;;;64;XRF;;;490;XRF;;;77;XRF;;;;;;;;;;;;;;;;;930;XRF;;;;;;;;;;;;;;;;;;;;;;;;;;;;;;;;;;;;;;;;;;;;;;;;;;;;;;;;;;;;;;;;;;;;;;;;0.51292;;;;;0.70358;;;;18.86;TIMS;;;;15.59;TIMS;;;;;39.02;TIMS;;;;;;;;;;;;;;;;;;;;;;;;;;;;;;;;;;;;;;;;;;;;;;;;;;;;;;;;;;;;;
1994;[2852] DENIEL C.(1994)  [GeoReM [1241] ];samp. PV243;;EAST AFRICAN RIFT / ETHIOPIAN RIFT / AFAR DEPRESSION / MOUSSA ALI;DJIBOUTI;12.4125;42.3667;12.4125;42.3667;;;OUTCROP;;;SUBAERIAL;VOLCANIC ROCK;BENMOREITE;;;100000;1000000;QUATERNARY;;;;;;;WHOLE ROCK;;;;;;;;;;61.22;0.75;;;;14.37;;;;;;;;;3.83;;2.87;;4.41;1.09;0.16;;;;;;3.91;AAS;;;4.73;0.18;;;1.37;0.11;;;;;;;;;;;;;;;;;;;;;;;;;;;;;;;;;;;;;;;;;;;;;;;;;;3;XRF;;;;;;;;;;;;;;;;;;;99;XRF;;;;;230;XRF;;;;;78;XRF;;;614;XRF;;;84;XRF;;;;;;;;;;;;;;;;;888;XRF;;;;;;;;;;;;;;;;;;;;;;;;;;;;;;;;;;;;;;;;;;;;;;;;;;;;;;;;;;;;;;;;;;;;;;;;0.5129;;;;;0.70359;;;;18.81;TIMS;;;;15.56;TIMS;;;;;38.95;TIMS;;;;;;;;;;;;;;;;;;;;;;;;;;;;;;;;;;;;;;;;;;;;;;;;;;;;;;;;;;;;;
1994;[2852] DENIEL C.(1994)  [GeoReM [1241] ];samp. PG55-AE2;;EAST AFRICAN RIFT / ETHIOPIAN RIFT / AFAR DEPRESSION / MOUSSA ALI;DJIBOUTI;12.3472;42.45;12.3472;42.45;;;OUTCROP;;;SUBAERIAL;VOLCANIC ROCK;BENMOREITE;;;100000;1000000;QUATERNARY;;;;;;;WHOLE ROCK;;;;;;;;;;62.52;1.01;;;;14.12;;;;;;;;;3.8;;4.52;;3.32;0.88;0.17;;;;;;2.73;AAS;;;5.45;0.18;;;0.17;0.07;;;;;;;;;;;;;;;;;;;;;;;;;;;;;;;;;;;;;;;;;;;;;;;;;;0;XRF;;;;;;;;;;;;;;;;;;;72;XRF;;;;;334;XRF;;;;;73;XRF;;;519;XRF;;;82;XRF;;;;;;;;;;;;;;;;;923;XRF;;;;;;;;;;;;;;;;;;;;;;;;;;;;;;;;;;;;;;;;;;;;;;;;;;;;;;;;;;;;;;;;;;;;;;;;0.51287;;;;;0.7038;;;;18.56;TIMS;;;;15.55;TIMS;;;;;38.76;TIMS;;;;;;;;;;;;;;;;;;;;;;;;;;;;;;;;;;;;;;;;;;;;;;;;;;;;;;;;;;;;;
1994;[2852] DENIEL C.(1994)  [GeoReM [1241] ];samp. PP684;;EAST AFRICAN RIFT / ETHIOPIAN RIFT / AFAR DEPRESSION / ASAL;DJIBOUTI;11.4467;42.5639;11.4467;42.5639;;;OUTCROP;;;SUBAERIAL;VOLCANIC ROCK;BENMOREITE;;;0;400000;QUATERNARY;;;;;;;WHOLE ROCK;;;;;;;;;;58.18;1.7;;;;14.44;;;;;;;;;2.83;;7.03;;5.17;1.93;0.1;;;;;;2.18;AAS;;;5.7;0.3;;;1.1;0.3;;;;;;;;;;;;;;;;;;;;;;;;;;;;;;;;;;;;;;;;;;;;;;;;;;0;XRF;;;;;;;;;;;;;;;;;;;46;XRF;;;;;268;XRF;;;;;86;XRF;;;661;XRF;;;65;XRF;;;;;;;;;;;;;;;;;725;XRF;;;88.5;ICPMS;;;163;ICPMS;;;;75.6;ICPMS;;;;;16.7;ICPMS;;;5;ICPMS;;;17.4;ICPMS;;;;;;;15.2;ICPMS;;;;8.4;ICPMS;;;;8;ICPMS;;;1.16;;;;;;;;;;;;;;;;;;;;;;;;0.51284;;;;;0.70395;;;;18.4;TIMS;;;;15.56;TIMS;;;;;38.89;TIMS;;;;;;;;;;;;;;;;;;;;;;;;;;;;;;;;;;;;;;;;;;;;;;;;;;;;;;;;;;;;;
1991;[2855] VIDAL P.(1991)  [GeoReM [1239] ];samp. PP309;;EAST AFRICAN RIFT / ETHIOPIAN RIFT / AFAR DEPRESSION / MABLAS SERIES;KHOR-ANGAR AREA;12.3986;42.2167;12.3986;42.2167;;;OUTCROP;;;SUBAERIAL;VOLCANIC ROCK;BENMOREITE;;;10000000;15000000;MIOCENE;;;;;;;WHOLE ROCK;;;;;;;;;;;;;;;;;;;;;;;;;;;;;;;;;;;;;;;;;;;;;;;;;;;;;;;;;;;;;;;;;;;;;;;;;;;;;;;;;;;;;;;;;;;;;;;;;;;;;;;;;;;;;;;;;;;;;;;;;;;;;;;;;;;;;;;;;;;;;;;;;;;;;;;;;;;;;;;;;;;;;;;;;;;;;;;;;;;;;;;;;;;;;;;;;;;;;;;;;;;;;;;;;;;;;;;;;;;;;;;;;;0.512812;;;;;0.704787;;;;18.709;TIMS;;;;15.63;TIMS;;;;;39.207;TIMS;;;;;;;;;;;;;;;;;;;;;;;;;;;;;;;;;;;;;;;;;;;;;;;;;;;;;;;;;;;;;
1991;[2855] VIDAL P.(1991)  [GeoReM [1239] ];samp. PP749;159748;EAST AFRICAN RIFT / ETHIOPIAN RIFT / AFAR DEPRESSION / MOUSSA ALI;DORRA AREA;12.4592;42.4253;12.4592;42.4253;;;OUTCROP;;;SUBAERIAL;VOLCANIC ROCK;BENMOREITE;;;;;QUATERNARY;;;;;;;WHOLE ROCK;;;;;;;;;;;;;;;;;;;;;;;;;;;;;;;;;;;;;;;;;;;;;;;;;;;;;;;;;;;;;;;;;;;;;;;;;;;;;;;;;;;;;;;;;;;;;;;;;;;;;;;;;;;;;;;;;;;;;;;;;;;;;;;;;;;;;;;;;;;;;;;;;;;;;;;;;;;;;;;;;;;;;;;;;;;;;;;;;;;;;;;;;;;;;;;;;;;;;;;;;;;;;;;;;;;;;;;;;;;;;;;;;;0.512918;;;;;0.703456;;;;18.887;TIMS;;;;15.58;TIMS;;;;;39.004;TIMS;;;;;;;;;;;;;;;;;;;;;;;;;;;;;;;;;;;;;;;;;;;;;;;;;;;;;;;;;;;;;
2000;[2920] GELDMACHER J. (2000);samp. K42;;MADEIRA ARCHIPELAGO / PORTO SANTO;WEST SLOPE OF PICO CASTELO (ABOVE AIRPORT), DIKE;33.0797;-16.3283;33.0797;-16.3283;;;OUTCROP;;;SUBAERIAL;VOLCANIC ROCK;BENMOREITE;;;;;;;;;;;;MINERAL / COMPONENT (INCL. GROUNDMASS);PLAGIOCLASE;;PHENOCRYST;;PRIMARY;;;;;;;;;;;;;;;;;;;;;;;;;;;;;;;;;;;;;;;;;;;;;;;;;;;;;;;;;;;;;;;;;;;;;;;;;;;;;;;;;;;;;;;;;;;;;;;;;;;;;;;;;;;;;;;;;;;;;;;;;;;;;;;;;;;;;;;;;;;;;;;;;;;;;;;;;;;;;;;;;;;;;;;;;;;;;;;;;;;;;;;;;;;;;;;;;;;;;;;;;;;;;;;;;;;;;;;;;;;;;;;;;;;;;;;;;;;;;;;;;;;;;;;;;;;291;;;;;;;;;;;;;;;;;;;;;;;;;;;;;;;;;;;;;;;;;;;;13.17;AR-AR;13.39;AR-AR;;;;;
2000;[2920] GELDMACHER J. (2000);samp. K49;;MADEIRA ARCHIPELAGO / PORTO SANTO;STREET BETWEEN SERRA DE DENTRO AND CAMACHA (NE PART OF PICO JULIANA), DIKE;33.0914;-16.3111;33.0914;-16.3111;;;OUTCROP;;;SUBAERIAL;VOLCANIC ROCK;BENMOREITE;;;;;;;;;;;;MINERAL / COMPONENT (INCL. GROUNDMASS);PLAGIOCLASE;;PHENOCRYST;;PRIMARY;;;;;;;;;;;;;;;;;;;;;;;;;;;;;;;;;;;;;;;;;;;;;;;;;;;;;;;;;;;;;;;;;;;;;;;;;;;;;;;;;;;;;;;;;;;;;;;;;;;;;;;;;;;;;;;;;;;;;;;;;;;;;;;;;;;;;;;;;;;;;;;;;;;;;;;;;;;;;;;;;;;;;;;;;;;;;;;;;;;;;;;;;;;;;;;;;;;;;;;;;;;;;;;;;;;;;;;;;;;;;;;;;;;;;;;;;;;;;;;;;;;;;;;;;;;291;;;;;;;;;;;;;;;;;;;;;;;;;;;;;;;;;;;;;;;;;;;;14.31;AR-AR;14.45;AR-AR;;;;;