Year;CITATION;SAMPLE NAME;UNIQUE_ID;LOCATION;LOCATION COMMENT;LATITUDE (MIN.);LONGITUDE (MIN.);LATITUDE (MAX.);LONGITUDE (MAX.);ELEVATION (MIN.);ELEVATION (MAX.);SAMPLING TECHNIQUE;DRILLING DEPTH (MIN.);DRILLING DEPTH (MAX.);LAND/SEA (SAMPLING);ROCK TYPE;ROCK NAME;ROCK TEXTURE;SAMPLE COMMENT;AGE (MIN.);AGE (MAX.);GEOLOGICAL AGE;GEOLOGICAL AGE PREFIX;ERUPTION DAY;ERUPTION MONTH;ERUPTION YEAR;ALTERATION;ALTERATION TYPE;TYPE OF MATERIAL;MINERAL / COMPONENT;SPOT (MINERAL);CRYSTAL;RIM / CORE (MINERAL GRAINS);PRIMARY/SECONDARY;INCLUSION TYPE;MINERAL (INCLUSION);HOSTMINERAL (INCLUSION);HEATING;SIO2(WT%);TIO2(WT%);ZRO2(WT%);HFO2(WT%);THO2(WT%);AL2O3(WT%);CR2O3(WT%);LA2O3(WT%);CE2O3(WT%);ND2O3(WT%);SM2O3(WT%);V2O3(WT%);NB2O5(WT%);FE2O3T(WT%);FE2O3(WT%);FEOT(WT%);FEO(WT%);FET(WT%);CAO(WT%);MGO(WT%);MNO(WT%);BAO(WT%);SRO(WT%);NIO(WT%);ZNO(WT%);RB2O(WT%);K2O(WT%);;;;NA2O(WT%);P2O5(WT%);AS2O5(WT%);H2O(WT%);H2OP(WT%);H2OM(WT%);CO2(WT%);C(WT%);F(WT%);CL(WT%);OH(WT%);SO3(WT%);S(WT%);LOI(WT%);TI(WT%);CA(WT%);K(WT%);LI(PPM);BE(PPM);B(PPM);F(PPM);P(PPM);S(PPM);CL(PPM);AR40(AT/G);;;;AR40(CCMSTP/G);;;;AR40(MOL/G);;;;AR40(PPB);K(PPM);SC(PPM);;;;TI(PPM);V(PPM);;;;CR(PPM);;;;CO(PPM);;;;NI(PPM);;;;CU(PPM);;;;ZN(PPM);;;;GA(PPM);;;;GE(PPM);AS(PPM);AS(PPB);SE(PPM);RB(PPM);;;;;;SR(PPM);;;;;;Y(PPM);;;;ZR(PPM);;;;NB(PPM);;;;MO(PPM);AG(PPM);CD(PPM);IN(PPM);SN(PPM);SB(PPM): altern. values or methods;;;;TE(PPM);CS(PPM): altern. values or methods;;;;BA(PPM): altern. values or methods;;;;LA(PPM): altern. values or methods;;;;CE(PPM): altern. values or methods;;;;PR(PPM);ND(PPM): altern. values or methods;;;;;;SM(PPM): altern. values or methods;;;;EU(PPM): altern. values or methods;;;;GD(PPM): altern. values or methods;;;;TB(PPM): altern. values or methods;;;;DY(PPM): altern. values or methods;;;;HO(PPM);ER(PPM): altern. values or methods;;;;TM(PPM);YB(PPM): altern. values or methods;;;;LU(PPM);HF(PPM);TA(PPM);W(PPM);RE(PPM);AU(PPM);HG(PPM);HG(PPB);TL(PPM);PB(PPM): altern. values or methods;;;;BI(PPM);PO210_ACT(DPM/G);RA226_ACT(DPM/G);TH(PPM): altern. values or methods;;;;U(PPM): altern. values or methods;;;;ND143_ND144;ND143_ND144_INI;EPSILON_ND;EPSILON_ND_INI;SM147_ND144;SR87_SR86;SR87_SR86_INI;EPSILON_SR_INI;RB87_SR86;PB206_PB204: altern. values or methods;;;;PB206_PB204_INI;PB207_PB204: altern. values or methods;;;;PB207_PB204_INI;PB207_PB206;PB208_PB204: altern. values or methods;;;;PB208_PB204_INI;PB208_PB206;HF176_HF177;LU176_HF177;AR38_AR36;AR40_AR36;AR40_AR36_INI;PB206_U238;PB207_U235;RA226_TH230_ACT;PA231_U235_ACT;TH230_TH232_ACT;TH230_U238_ACT;TH232_PB204;U234_U238_ACT;U235_PB204;U238_PB204;U238_TH232_ACT;D7LI(VS LSVEC);D13C(VS PDB);D18O(PER MIL);D18O(VS SMOW);D18O(VS VSMOW);D34S(VS VCDT);ALBITE(MOL%);ANORTHITE(MOL%);CA OLIVINE(MOL%);CHROMITE(MOL%);ENSTATITE(MOL%);FAYALITE(MOL%);FORSTERITE(MOL%);FERROSILITE(MOL%);HEMATITE(MOL%);HERCYNITE(MOL%);ILMENITE(MOL%);MAGNESIOFERRITE(MOL%);MONTICELLITE(MOL%);MAGNETITE(MOL%);ORTHOCLASE(MOL%);PICROCHROMITE(MOL%);SPINEL(MOL%);TEPHROITE(MOL%);ULVOSPINEL(MOL%);WOLLASTONITE(MOL%);AGE(KA): altern. values or methods;;;;;;AGE(MA): altern. values or methods;;;;;;AGE_PB207_U235(MA);AGE_PB206_U238(MA);
2002;[6181] DAVIS A. S. (2002);samp. SO33-D71-7;;LINE ISLANDS CHAIN / UNNAMED SEAMOUNT (LINE ISLANDS CHAIN) / DREDGE 71;;20.2233;-170.6217;20.2233;-170.6217;-1740;-2220;DREDGE;;;SUBAQUATIC;VOLCANIC ROCK;BENMOREITE;;;;;;;;;;;;MINERAL / COMPONENT (INCL. GROUNDMASS);PLAGIOCLASE;;;;PRIMARY;;;;;;;;;;;;;;;;;;;;;;;;;;;;;;;;;;;;;;;;;;;;;;;;;;;;;;;;;;;;;;;;;;;;;;;;;;;;;;;;;;;;;;;;;;;;;;;;;;;;;;;;;;;;;;;;;;;;;;;;;;;;;;;;;;;;;;;;;;;;;;;;;;;;;;;;;;;;;;;;;;;;;;;;;;;;;;;;;;;;;;;;;;;;;;;;;;;;;;;;;;;;;;;;;;;;;;;;;;;;;;;;;;;;;;;;;;;;;;;;;;;;;;;;;;;;;;;;;;;;;;;;;;;;;;;;;;;;;;;;;;;;;;;;;;;;;;;73.78;AR-AR;;;;;;;
2002;[6181] DAVIS A. S. (2002);samp. F7-89-D1-1;;KARIN RIDGE / KARIN RIDGE / DREDGE 1;;17.1017;-168.3467;17.1017;-168.3467;-1800;-2255;DREDGE;;;SUBAQUATIC;VOLCANIC ROCK;BENMOREITE;;;;;;;;;;;;MINERAL / COMPONENT (INCL. GROUNDMASS);PLAGIOCLASE;;;;PRIMARY;;;;;;;;;;;;;;;;;;;;;;;;;;;;;;;;;;;;;;;;;;;;;;;;;;;;;;;;;;;;;;;;;;;;;;;;;;;;;;;;;;;;;;;;;;;;;;;;;;;;;;;;;;;;;;;;;;;;;;;;;;;;;;;;;;;;;;;;;;;;;;;;;;;;;;;;;;;;;;;;;;;;;;;;;;;;;;;;;;;;;;;;;;;;;;;;;;;;;;;;;;;;;;;;;;;;;;;;;;;;;;;;;;;;;;;;;;;;;;;;;;;;;;;;;;;;;;;;;;;;;;;;;;;;;;;;;;;;;;;;;;;;;;;;;;;;;;;81.43;AR-AR;;;;;;;
2002;[6181] DAVIS A. S. (2002);samp. SO33-D71-9;;LINE ISLANDS CHAIN / UNNAMED SEAMOUNT (LINE ISLANDS CHAIN) / DREDGE 71;;20.2233;-170.6217;20.2233;-170.6217;-1740;-2220;DREDGE;;;SUBAQUATIC;VOLCANIC ROCK;BENMOREITE;;;;;;;;;;;;WHOLE ROCK;;;;;;;;;;57.5;1.31;;;;19.1;;;;;;;;7.04;;;;;3.99;1.37;0.28;;;;;;3.41;XRF;;;5.58;0.42;;;;;;;;;;;;0.1;;;;;;;;;;;;;;;;;;;;;;;;;1.38;INAA;;;;;;;;;;;;;;;;;;;;;;;;;;;;;;;;;;;;66.8;XRF;;;;;1250;XRF;;;;;62;XRF;;;602;XRF;;;122;XRF;;;;;;;;;;;;;;;;;1240;XRF;;;90.5;INAA;;;195;INAA;;;;82.7;INAA;;;;;14.6;INAA;;;4.42;INAA;;;12.2;INAA;;;1.6;INAA;;;;;;;;;;;;;3.76;INAA;;;0.52;12.7;8.7;;;;;;;;;;;;;;10.2;INAA;;;;;;;;;;;;;;;;;;;;;;;;;;;;;;;;;;;;;;;;;;;;;;;;;;;;;;;;;;;;;;;;;;;;;;;;;;;;;;;;;;;;;;;;;
2002;[6181] DAVIS A. S. (2002);samp. SO37-D17-1B;;KELI RIDGE / WEST KELI RIDGE / DREDGE 17;;15.68;-170.37;15.68;-170.37;-1180;-1628;DREDGE;;;SUBAQUATIC;VOLCANIC ROCK;BENMOREITE;;;;;;;;;;;;WHOLE ROCK;;;;;;;;;;56.26;0.98;;;;20.54;;;;;;;;4.55;;;;;4.22;1.17;0.16;;;;;;4.96;XRF;;;5.92;0.24;;;;;;;;;;;;2.21;;;;;;;;;;;;;;;;;;;;;;;;;2.96;INAA;;;;;;;;;;;;;;;;;;;;;;;;;;;;;;;;;;;;142;XRF;;;;;1410;XRF;;;;;30;XRF;;;368;XRF;;;90;XRF;;;;;;;;;;;;;;;;;1750;XRF;;;91.6;INAA;;;153;INAA;;;;41.6;INAA;;;;;5.86;INAA;;;1.64;INAA;;;4.64;INAA;;;0.62;INAA;;;;;;;;;;;;;2.12;INAA;;;0.32;7.08;3.67;;;;;;;;;;;;;;14.3;INAA;;;;;;;;;;;;;;;;;;;;;;;;;;;;;;;;;;;;;;;;;;;;;;;;;;;;;;;;;;;;;;;;;;;;;;;;;;;;;;;;;;;;;;;;;
2002;[6181] DAVIS A. S. (2002);samp. SO37-D30-2;;KELI RIDGE / WEST KELI RIDGE / DREDGE 30;;15.665;-170.3817;15.665;-170.3817;-1179;-1179;DREDGE;;;SUBAQUATIC;VOLCANIC ROCK;BENMOREITE;;;;;;;;;;;;WHOLE ROCK;;;;;;;;;;52.5;1.79;;;;20.8;;;;;;;;6.78;;;;;6.21;1.64;0.2;;;;;;3.67;XRF;;;5.65;0.84;;;;;;;;;;;;3.31;;;;;;;;;;;;;;;;;;;;;;;;;3.59;INAA;;;;;;;;;;;;;;;;;;;;;;;;;;;;;;;;;;;;95.8;XRF;;;;;1290;XRF;;;;;44;XRF;;;395;XRF;;;120;XRF;;;;;;;;;;;;;;;;;1230;XRF;;;95;INAA;;;186;INAA;;;;71;INAA;;;;;10.6;INAA;;;3.01;INAA;;;8.55;INAA;;;1.12;INAA;;;;;;;;;;;;;2.92;INAA;;;0.41;7.73;5.91;;;;;;;;;;;;;;11.2;INAA;;;;;;;;;;;;;;;;;;;;;;;;;;;;;;;;;;;;;;;;;;;;;;;;;;;;;;;;;;;;;;;;;;;;;;;;;;;;;;;;;;;;;;;;;
2002;[6181] DAVIS A. S. (2002);samp. F7-89-D1-1;;KARIN RIDGE / KARIN RIDGE / DREDGE 1;;17.1017;-168.3467;17.1017;-168.3467;-1800;-2255;DREDGE;;;SUBAQUATIC;VOLCANIC ROCK;BENMOREITE;;;;;;;;;;;;WHOLE ROCK;;;;;;;;;;56.7;2.4;;;;20.5;;;;;;;;3.77;;;;;5.52;0.43;0.02;;;;;;4.51;XRF;;;4.93;1.27;;;;;;;;;;;;0.93;;;;;;;;;;;;;;;;;;;;;;;;;10.2;INAA;;;;;;;;;;;;;;;;;;;;;;;;;;;;;;;;;;;;70.1;XRF;;;;;840;XRF;;;;;48;XRF;;;391;XRF;;;110;XRF;;;;;;;;;;;;;;;;;937;XRF;;;69.5;INAA;;;136;INAA;;;;50.1;INAA;;;;;11;INAA;;;3.55;INAA;;;10.5;INAA;;;1.33;INAA;;;;;;;;;;;;;3.18;INAA;;;0.44;8.8;7.8;;;;;;;;;;;;;;9.2;INAA;;;;;;;;;;;;;;;;;;;;;;;;;;;;;;;;;;;;;;;;;;;;;;;;;;;;;;;;;;;;;;;;;;;;;;;;;;;;;;;;;;;;;;;;;
2002;[6181] DAVIS A. S. (2002);samp. F7-89-D1-4;;KARIN RIDGE / KARIN RIDGE / DREDGE 1;;17.1017;-168.3467;17.1017;-168.3467;-1800;-2255;DREDGE;;;SUBAQUATIC;VOLCANIC ROCK;BENMOREITE;;;;;;;;;;;;WHOLE ROCK;;;;;;;;;;49.7;2.43;;;;16.4;;;;;;;;11.6;;;;;7.86;5.43;0.16;;;;;;2.17;XRF;;;3.56;0.72;;;;;;;;;;;;3.47;;;;;;;;;;;;;;;;;;;;;;;;;16.5;INAA;;;;;;;;;;;;;;;;;;;;;;;;;;;;;;;;;;;;46.1;XRF;;;;;736;XRF;;;;;30;XRF;;;231;XRF;;;62;XRF;;;;;;;;;;;;;;;;;890;XRF;;;41.8;INAA;;;78.9;INAA;;;;36;INAA;;;;;8.31;INAA;;;2.58;INAA;;;7.57;INAA;;;0.95;INAA;;;;;;;;;;;;;2.16;INAA;;;0.3;5.2;4.4;;;;;;;;;;;;;;4.9;INAA;;;;;;;;;;;;;;;;;;;;;;;;;;;;;;;;;;;;;;;;;;;;;;;;;;;;;;;;;;;;;;;;;;;;;;;;;;;;;;;;;;;;;;;;;
1992;[6340] NELSON S. A. (1992);samp. 134;;MEXICAN VOLCANIC BELTS / TRANS MEXICAN VOLCANIC BELT / VERACRUZ / YOHUALTAJAPAN -TUXTLA VOLCANIC FIELD;;18.4;-94.9;18.4;-94.9;;;OUTCROP;;;SUBAERIAL;VOLCANIC ROCK;BENMOREITE;;;;;;;;;;;;WHOLE ROCK;;;;;;;;;;58.9;0.8;;;;18.6;;;;;;;;;;5.44;;;5.88;2.6;0.15;;;;;;2.49;XRF;;;4.6;0.31;;;;;;;;;;;;0.7;;;1.674;;;;;;;;;;;;;;;;;;;;;;;;;;;147;XRF;;;30;XRF;;;;;;;12;XRF;;;75;XRF;;;64;XRF;;;;;;;;;;;56;XRF;;;;;529;XRF;;;;;26;XRF;;;216;XRF;;;15;XRF;;;;;;;;;;;;;;;;;494;XRF;;;;;;;;;;;;;;;;;;;;;;;;;;;;;;;;;;;;;;;;;;;;;;;;;;;;;;;;;;;;;;;;;;;;;;;;;;;;;;;;;;;;;;;;;;;;;;;;;;;;;;;;;;;;;;;;;;;;;;;;;;;;;;;;;;;;;;;;;;;;;;;;;;1;K-AR;;;;;;;
1992;[6622] KYLE P. R. (1992);samp. 25745;;ROSS ISLAND / ROSS ISLAND / MOUNT EREBUS;MCMURDO VOLCANIC GROUP;-77;167;-78;168;;;OUTCROP;;;SUBAERIAL;VOLCANIC ROCK;BENMOREITE, NEPHELINE;COARSELY PORPHYRITC;LAVA;;;;;;;;;;MINERAL / COMPONENT (INCL. GROUNDMASS);CLINOPYROXENE;;PHENOCRYST;CORE;PRIMARY;;;;;49.4;2.29;;;;4.44;;;;;;;;;2.23;;6.54;;21.8;12.1;0.49;;;;;;;;;;0.99;;;;;;;;;;;;;;;;;;;;;;;;;;;;;;;;;;;;;;;;;;;;;;;;;;;;;;;;;;;;;;;;;;;;;;;;;;;;;;;;;;;;;;;;;;;;;;;;;;;;;;;;;;;;;;;;;;;;;;;;;;;;;;;;;;;;;;;;;;;;;;;;;;;;;;;;;;;;;;;;;;;;;;;;;;;;;;;;;;;;;;;;;;;;;;;;;;;;;;;;;;;;;;;;;;;;;;;;;;;;;;;;;;;;;;;;;;;;;;;;;;;;;;;;;;;;;;;;;;;;;;;;;;;;
1992;[6622] KYLE P. R. (1992);samp. 25745;;ROSS ISLAND / ROSS ISLAND / MOUNT EREBUS;MCMURDO VOLCANIC GROUP;-77;167;-78;168;;;OUTCROP;;;SUBAERIAL;VOLCANIC ROCK;BENMOREITE, NEPHELINE;COARSELY PORPHYRITC;LAVA;;;;;;;;;;MINERAL / COMPONENT (INCL. GROUNDMASS);CLINOPYROXENE;;PHENOCRYST;RIM;PRIMARY;;;;;49.3;1.99;;;;3.63;;;;;;;;;3.41;;5.28;;23.1;12.4;0.51;;;;;;;;;;0.7;;;;;;;;;;;;;;;;;;;;;;;;;;;;;;;;;;;;;;;;;;;;;;;;;;;;;;;;;;;;;;;;;;;;;;;;;;;;;;;;;;;;;;;;;;;;;;;;;;;;;;;;;;;;;;;;;;;;;;;;;;;;;;;;;;;;;;;;;;;;;;;;;;;;;;;;;;;;;;;;;;;;;;;;;;;;;;;;;;;;;;;;;;;;;;;;;;;;;;;;;;;;;;;;;;;;;;;;;;;;;;;;;;;;;;;;;;;;;;;;;;;;;;;;;;;;;;;;;;;;;;;;;;;;
1992;[6622] KYLE P. R. (1992);samp. 82023;126828;ROSS ISLAND / ROSS ISLAND / MOUNT EREBUS / EREBUS HIGH IRON SERIES;;-77.53;167.17;-77.53;167.17;;;OUTCROP;;;SUBAERIAL;VOLCANIC ROCK;BENMOREITE;COARSELY PORPYRITIC;LAVA;;;;;;;;;;MINERAL / COMPONENT (INCL. GROUNDMASS);CLINOPYROXENE;;PHENOCRYST;RIM;PRIMARY;;;;;51.07;0.86;;;;2.03;;;;;;;;;1.04;;14.29;;21.35;9.34;0.89;;;;;;;;;;0.57;;;;;;;;;;;;;;;;;;;;;;;;;;;;;;;;;;;;;;;;;;;;;;;;;;;;;;;;;;;;;;;;;;;;;;;;;;;;;;;;;;;;;;;;;;;;;;;;;;;;;;;;;;;;;;;;;;;;;;;;;;;;;;;;;;;;;;;;;;;;;;;;;;;;;;;;;;;;;;;;;;;;;;;;;;;;;;;;;;;;;;;;;;;;;;;;;;;;;;;;;;;;;;;;;;;;;;;;;;;;;;;;;;;;;;;;;;;;;;;;;;;;;;;;;;;;;;;;;;;;;;;;;;;;
1992;[6622] KYLE P. R. (1992);samp. 25748;;ROSS ISLAND / ROSS ISLAND / MOUNT EREBUS;MCMURDO VOLCANIC GROUP;-77;167;-78;168;;;OUTCROP;;;SUBAERIAL;VOLCANIC ROCK;BENMOREITE, NEPHELINE;COARSELY PORPHYRITC;LAVA;;;;;;;;;;WHOLE ROCK;;;;;;;;;;;;;;;;;;;;;;;;;;6.77;;;;;;;;;;;;;;;;;;;;;;;;;;;;;;;;;;;;;;;;;;;;;;;;;;;;5.3;INAA;;;;;;;;0;INAA;;;;;;;;;;;;;;;;;;;;;;;;;;;86;INAA;;;;;;;;;;;;;;;;;;;;;;;;;;;;;;;;;0.89;INAA;;;944;INAA;;;;;;;215;INAA;;;;;;;;;;;;;;3.99;INAA;;;;;;;1.65;INAA;;;;;;;;;;;;;4.6;INAA;;;;14.1;13.1;;;;;;;;;;;;;;16.9;INAA;;;;;;;;;;;;;;;;;;;;;;;;;;;;;;;;;;;;;;;;;;;;;;;;;;;;;;;;;;;;;;;;;;;;;;;;;;;;;;;;;;;;;;;;;
1992;[6622] KYLE P. R. (1992);samp. 25748;;ROSS ISLAND / ROSS ISLAND / MOUNT EREBUS;MCMURDO VOLCANIC GROUP;-77;167;-78;168;;;OUTCROP;;;SUBAERIAL;VOLCANIC ROCK;BENMOREITE, NEPHELINE;COARSELY PORPHYRITC;LAVA;;;;;;;;;;MINERAL / COMPONENT (INCL. GROUNDMASS);GROUNDMASS;;GROUNDMASS;;PRIMARY;;;;;;;;;;;;;;;;;;;;;7.06;;;;;;;;;;;;;;7.61;;;;;;;;;;;;;;;;;;;;;;;;;;;;;;;;;;;;;;5.9;INAA;;;;;;;;0;INAA;;;;;;;;;;;;;;;;;;;;;;;;;;;114;INAA;;;;;;;;;;;;;;;;;;;;;;;;;;;;;;;;;1.2;INAA;;;879;INAA;;;131;INAA;;;253.6;INAA;;;;;;;;;;16.4;INAA;;;3.92;INAA;;;;;;;1.79;INAA;;;;;;;;;;;;;5.6;INAA;;;0.78;17.7;15.9;;;;;;;;;;;;;;21.5;INAA;;;7.2;INAA;;;;;;;;;;;;;;;;;;;;;;;;;;;;;;;;;;;;;;;;;;;;;;;;;;;;;;;;;;;;;;;;;;;;;;;;;;;;;;;;;;;;;
1992;[6622] KYLE P. R. (1992);samp. 83410;126827;ROSS ISLAND / ROSS ISLAND / MOUNT EREBUS / EREBUS HIGH IRON SERIES;;-77.53;167.17;-77.53;167.17;;;OUTCROP;;;SUBAERIAL;VOLCANIC ROCK;BENMOREITE, NEPHELINE;COARSELY PORPYRITIC;LAVA;;;;;;;;;;WHOLE ROCK;;;;;;;;;;50.77;1.95;;;;18.91;;;;;;;;;;;7.78;;5.55;2.2;0.22;;;;;;3.38;XRF;;;6.9;0.93;;;;;;;;;;;;0.17;;;;;;;;;;;;;;;;;;;;;;;;;5.09;XRF;;;;37;XRF;;;0;XRF;;;;;;;7;XRF;;;21;XRF;;;108;XRF;;;24;XRF;;;;2.1;;;75;XRF;;;;;1188;XRF;;;;;47;XRF;;;608;XRF;;;192;XRF;;;;;;;;0.1;XRF;;;;0.83;XRF;;;909;XRF;;;107.9;XRF;;;218.1;XRF;;;;95;XRF;;;;;13.89;XRF;;;4.11;XRF;;;;;;;1.7;XRF;;;;;;;;;;;;;3.95;XRF;;;0.59;12.6;11.3;;;;;;;0;XRF;;;;;;13.9;XRF;;;4.7;XRF;;;;;;;;0.703;;;;;;;;;;;;;;;;;;;;;;;;;;;;;;;;;;;;;;;;;;;;;;;;;;;;;;;;;;;;;;;;;;;;;;;;;;;;;
1992;[6622] KYLE P. R. (1992);samp. AW82015;130562;ROSS ISLAND / ROSS ISLAND / MOUNT EREBUS;TURKS HEAD, MCMURDO VOLCANIC GROUP;-77.6667;166.7833;-77.6667;166.7833;;;OUTCROP;;;SUBAERIAL;VOLCANIC ROCK;BENMOREITE, NEPHELINE;COARSELY PORPHYRITIC;LAVA;;;;;;;;;;WHOLE ROCK;;;;;;;;;;54.22;1.58;;;;18.84;;;;;;;;;;;6.76;;4.22;1.81;0.23;;;;;;3.9;XRF;;;6.96;0.71;;;;;;;;;;;;-0.12;;;;;;;;;;;;;;;;;;;;;;;;;4.25;XRF;;;;24;XRF;;;0;XRF;;;;;;;7;XRF;;;11;XRF;;;124;XRF;;;26;XRF;;;;1;;;86;XRF;;;;;1171;XRF;;;;;53;XRF;;;766;XRF;;;214;XRF;;;;;;;;0.2;XRF;;;;0.98;XRF;;;990;XRF;;;111;XRF;;;222.9;XRF;;;;96;XRF;;;;;14.43;XRF;;;4.48;XRF;;;;;;;1.78;XRF;;;;;;;;;;;;;4.7;XRF;;;0.7;16.8;12.6;;;;;;;0;XRF;;;;;;15.4;XRF;;;4.8;XRF;;;;;;;;0.703027;;;;;;;;;;;;;;;;;;;;;;;;;;;;;;;;;;;;;;;;;;;;;;;;;;;;;;;;;;;;;;;;;;;;;;;;;;;;;
1992;[6622] KYLE P. R. (1992);samp. 83412;126826;ROSS ISLAND / ROSS ISLAND / MOUNT EREBUS / EREBUS HIGH IRON SERIES;;-77.53;167.17;-77.53;167.17;;;OUTCROP;;;SUBAERIAL;VOLCANIC ROCK;BENMOREITE;COARSELY PORPYRITIC;LAVA;;;;;;;;;;WHOLE ROCK;;;;;;;;;;54.28;1.2;;;;18.01;;;;;;;;;;;8.46;;4.4;1.57;0.29;;;;;;3.38;XRF;;;6.52;0.51;;;;;;;;;;;;0.01;;;;;;;;;;;;;;;;;;;;;;;;;2.2;XRF;;;;10;XRF;;;0;XRF;;;;;;;6;XRF;;;13;XRF;;;134;XRF;;;25;XRF;;;;0;;;75;XRF;;;;;970;XRF;;;;;42;XRF;;;628;XRF;;;172;XRF;;;;;;;;0.3;XRF;;;;0.7;XRF;;;887;XRF;;;111.5;XRF;;;217.7;XRF;;;;86;XRF;;;;;11.94;XRF;;;3.51;XRF;;;;;;;1.35;XRF;;;;;;;;;;;;;3.64;XRF;;;0.56;13.8;10.4;;;;;;;0;XRF;;;;;;12.9;XRF;;;3.3;XRF;;;;;;;;0.703029;;;;;;;;;;;;;;;;;;;;;;;;;;;;;;;;;;;;;;;;;;;;;;;;;;;;;;;;;;;;;;;;;;;;;;;;;;;;;
1992;[6622] KYLE P. R. (1992);samp. 82023;126828;ROSS ISLAND / ROSS ISLAND / MOUNT EREBUS / EREBUS HIGH IRON SERIES;;-77.53;167.17;-77.53;167.17;;;OUTCROP;;;SUBAERIAL;VOLCANIC ROCK;BENMOREITE;COARSELY PORPYRITIC;LAVA;;;;;;;;;;WHOLE ROCK;;;;;;;;;;55.81;1.07;;;;18.03;;;;;;;;;;;7.71;;3.75;1.35;0.3;;;;;;3.5;XRF;;;7.06;0.41;;;;;;;;;;;;-0.22;;;;;;;;;;;;;;;;;;;;;;;;;2.07;XRF;;;;10;XRF;;;0;XRF;;;;;;;7;XRF;;;10;XRF;;;122;XRF;;;25;XRF;;;;0;;;80;XRF;;;;;923;XRF;;;;;43;XRF;;;634;XRF;;;193;XRF;;;;;;;;0.2;XRF;;;;0.73;XRF;;;1109;XRF;;;113;XRF;;;228.4;XRF;;;;88;XRF;;;;;12.22;XRF;;;3.83;XRF;;;;;;;1.44;XRF;;;;;;;;;;;;;3.93;XRF;;;0.61;13.9;11.4;;;;;;;6;XRF;;;;;;14.3;XRF;;;4.8;XRF;;;;;;;;0.703003;;;;;;;;;;;;;;;;;;;;;;;;;;;;;;;;;;;;;;;;;;;;;;;;;;;;;;;;;;;;;;;;;;;;;;;;;;;;;
2003;[6670] PRICE R. C. (2003);samp. PCB24;;NEW ZEALAND / SOUTH ISLAND / OTAGO / DUNEDIN;PORT CHALMERS;-45.6;170.5;-45.6;170.5;;;OUTCROP;;;SUBAERIAL;VOLCANIC ROCK;BENMOREITE;;;;;;;;;;;;WHOLE ROCK;;;;;;;;;;51.1;1.02;;;;19.01;;;;;;;;;3.07;;4.39;;4.3;1.76;0.21;;;;;;3.69;XRF;;;7.89;0.26;;;2.61;0.32;0.16;;;;;;0.01;;;;;;;;;;;;;;;;;;;;;;;;;;4;XRF;;;;46;XRF;;;69;XRF;;;;;;;22;XRF;;;5;XRF;;;110;XRF;;;29;XRF;;;;;;;117;XRF;;;;;1048;XRF;;;;;33;XRF;;;462;XRF;;;163.1;ICPMS;;;;;;;;;;;;;1.92;ICPMS;;;929;XRF;;;95.3;ICPMS;;;164.6;ICPMS;;;15.5;59.3;ICPMS;;;;;9.6;ICPMS;;;2.19;ICPMS;;;8.92;ICPMS;;;1.2;ICPMS;;;6.28;ICPMS;;;1.14;2.76;ICPMS;;;0.4;2.64;ICPMS;;;0.37;8.6;;;;;;;;10.48;ICPMS;;;;;;17.67;ICPMS;;;4.15;ICPMS;;;;;;;;;;;;;;;;;;;;;;;;;;;;;;;;;;;;;;;;;;;;;;;;;;;;;;;;;;;;;;;;;;;;;;;;;;;;;;;;;;;;;
1973;[6697] PRICE R. C. (1973);samp. 30412;110883;NEW ZEALAND / SOUTH ISLAND / OTAGO / DUNEDIN;HIGHCLIFF NEAR CADZOW MEMORIAL;-45.6;170.5;-45.8;170.8;;;OUTCROP;;;SUBAERIAL;VOLCANIC ROCK;BENMOREITE;;LAVA;;;;;;;;;;WHOLE ROCK;;;;;;;;;;55.55;0.99;;;;18.15;;;;;;;;;3.16;;4.14;;3.91;1.31;0.19;;;;;;4.06;XRF;;;5.98;0.16;;;1.2;0.45;0.21;;;0.11;;;0.02;;;;;;;;;;;;;;;;;;;;;;;;;;;;;;;;;;;;;;;;;;;;;;;7;XRF;;;104;XRF;;;25;XRF;;;;;;;113;XRF;;;;;503;XRF;;;;;35;XRF;;;525;XRF;;;108;XRF;;;;;;;;;;;;;;;;;870;XRF;;;60.8;MS;;;112.8;MS;;;13.4;44.1;MS;;;;;8.2;MS;;;2.5;MS;;;8;MS;;;1.1;MS;;;6.5;MS;;;1.3;3.7;MS;;;0.6;3.7;MS;;;0.6;9;;;;;;;;11;XRF;;;;;;16;XRF;;;3;XRF;;;;;;;;;;;;;;;;;;;;;;;;;;;;;;;;;;;;;;;;;;;;;;;;;;;;;;;;;;;;;;;;;;;;;;;;;;;;;;;;;;;;;
1973;[6697] PRICE R. C. (1973);samp. 30449;110881;NEW ZEALAND / SOUTH ISLAND / OTAGO / DUNEDIN;1 KM WEST OF MT. CARGILL;-45.6;170.5;-45.8;170.8;;;OUTCROP;;;SUBAERIAL;VOLCANIC ROCK;BENMOREITE, NEPHELINE;;LAVA;;;;;;;;;;WHOLE ROCK;;;;;;;;;;50.99;1.06;;;;18.75;;;;;;;;;3.46;;4.46;;4.71;2.35;0.21;;;;;;3.55;XRF;;;8.29;0.5;;;0.64;0.39;0.07;;;0.31;;;0.01;;;;;;;;;;;;;;;;;;;;;;;;;;;;;;;50;XRF;;;28;XRF;;;;;;;24;XRF;;;24;XRF;;;122;XRF;;;26;XRF;;;;;;;116;XRF;;;;;1118;XRF;;;;;32;XRF;;;610;XRF;;;117;XRF;;;;;;;;;;;;;;;;;751;XRF;;;85.1;MS;;;126.8;MS;;;15;45.6;MS;;;;;8.7;MS;;;2.7;MS;;;9.9;MS;;;1.1;MS;;;6.6;MS;;;1.2;3.4;MS;;;0.5;3.1;MS;;;0.5;9;;;;;;;;12;XRF;;;;;;22;XRF;;;5;XRF;;;;;;;;;;;;;;;;;;;;;;;;;;;;;;;;;;;;;;;;;;;;;;;;;;;;;;;;;;;;;;;;;;;;;;;;;;;;;;;;;;;;;
1973;[6698] PRICE R. C. (1973);samp. 30449;110881;NEW ZEALAND / SOUTH ISLAND / OTAGO / DUNEDIN;1 KM WEST OF MT. CARGILL;-45.6;170.5;-45.8;170.8;;;OUTCROP;;;SUBAERIAL;VOLCANIC ROCK;BENMOREITE, NEPHELINE;;;;;;;;;;;;WHOLE ROCK;;;;;;;;;;;;;;;;;;;;;;;;;;;;;;;;;;;;;;;;;;;;;;;;;;;;;;;;;;;;;;;;;;;;;;;;;;;;;;;;;;;;;;;;;;;;;;;;;;;;;;;;;;;;;;;;;;;116;XRF;;;;;1117.7;XRF;;;;;;;;;;;;;;;;;;;;;;;;;;;;;;;;;;;;;;;;;;;;;;;;;;;;;;;;;;;;;;;;;;;;;;;;;;;;;;;;;;;;;;;;;;;;;;;;;;;;;;;;;;;;;0.70283;;;;;;;;;;;;;;;;;;;;;;;;;;;;;;;;;;;;;;;;;;;;;;;;;;;;;;;;;;;;;;;;;;;;;;;;;;;;;
1973;[6698] PRICE R. C. (1973);samp. 30437;;NEW ZEALAND / SOUTH ISLAND / OTAGO / DUNEDIN;MT. MOPANUI;-45.6;170.5;-45.8;170.8;;;OUTCROP;;;SUBAERIAL;VOLCANIC ROCK;BENMOREITE, NEPHELINE;;;;;;;;;;;;WHOLE ROCK;;;;;;;;;;;;;;;;;;;;;;;;;;;;;;;;;;;;;;;;;;;;;;;;;;;;;;;;;;;;;;;;;;;;;;;;;;;;;;;;;;;;;;;;;;;;;;;;;;;;;;;;;;;;;;;;;;;124;XRF;;;;;909.2;XRF;;;;;;;;;;;;;;;;;;;;;;;;;;;;;;;;;;;;;;;;;;;;;;;;;;;;;;;;;;;;;;;;;;;;;;;;;;;;;;;;;;;;;;;;;;;;;;;;;;;;;;;;;;;;;0.70311;;;;;;;;;;;;;;;;;;;;;;;;;;;;;;;;;;;;;;;;;;;;;;;;;;;;;;;;;;;;;;;;;;;;;;;;;;;;;
1973;[6698] PRICE R. C. (1973);samp. 30412;110883;NEW ZEALAND / SOUTH ISLAND / OTAGO / DUNEDIN;HIGHCLIFF NEAR CADZOW MEMORIAL;-45.6;170.5;-45.8;170.8;;;OUTCROP;;;SUBAERIAL;VOLCANIC ROCK;BENMOREITE;;;;;;;;;;;;WHOLE ROCK;;;;;;;;;;;;;;;;;;;;;;;;;;;;;;;;;;;;;;;;;;;;;;;;;;;;;;;;;;;;;;;;;;;;;;;;;;;;;;;;;;;;;;;;;;;;;;;;;;;;;;;;;;;;;;;;;;;113;XRF;;;;;503.1;XRF;;;;;;;;;;;;;;;;;;;;;;;;;;;;;;;;;;;;;;;;;;;;;;;;;;;;;;;;;;;;;;;;;;;;;;;;;;;;;;;;;;;;;;;;;;;;;;;;;;;;;;;;;;;;;0.70306;;;;;;;;;;;;;;;;;;;;;;;;;;;;;;;;;;;;;;;;;;;;;;;;;;;;;;;;;;;;;;;;;;;;;;;;;;;;;
1986;[6703] GAMBLE J. A. (1986);samp. OU36179;;NEW ZEALAND / SOUTH ISLAND / CAMPBELL ISLAND / MOUNT DUMAS;;-52.5;169.17;-52.5;169.17;;;OUTCROP;;;SUBAERIAL;VOLCANIC ROCK;BENMOREITE;;;;;;;;;;;;MINERAL / COMPONENT (INCL. GROUNDMASS);CLINOPYROXENE;;PHENOCRYST;;PRIMARY;;;;;48.46;1.4;;;;4.13;0.17;;;;;;;;4.65;;6.32;;19.3;14.14;0.25;;;;;;;;;;0.58;;;;;;;;;;;;;;;;;;;;;;;;;;;;;;;;;;;;;;;;;;;;;;;;;;;;;;;;;;;;;;;;;;;;;;;;;;;;;;;;;;;;;;;;;;;;;;;;;;;;;;;;;;;;;;;;;;;;;;;;;;;;;;;;;;;;;;;;;;;;;;;;;;;;;;;;;;;;;;;;;;;;;;;;;;;;;;;;;;;;;;;;;;;;;;;;;;;;;;;;;;;;;;;;;;;;;;;;;;;;;;;;;;;;;;;;;;;;;;;;;;;;;;;;;;;;;;;;;;;;;;;;;;;;
1986;[6703] GAMBLE J. A. (1986);samp. OU36179;;NEW ZEALAND / SOUTH ISLAND / CAMPBELL ISLAND / MOUNT DUMAS;;-52.5;169.17;-52.5;169.17;;;OUTCROP;;;SUBAERIAL;VOLCANIC ROCK;BENMOREITE;;;;;;;;;;;;MINERAL / COMPONENT (INCL. GROUNDMASS);AMPHIBOLE;;;CORE;PRIMARY;;;;;37.89;7.39;;;;13.59;;;;;;;;;;10.56;;;11.25;13.15;0.12;;;;;;0.54;EMP (EPMA);;;2.9;;;;;;;;;;;;;;;;;;;;;;;;;;;;;;;;;;;;;;;;;;;;;;;;;;;;;;;;;;;;;;;;;;;;;;;;;;;;;;;;;;;;;;;;;;;;;;;;;;;;;;;;;;;;;;;;;;;;;;;;;;;;;;;;;;;;;;;;;;;;;;;;;;;;;;;;;;;;;;;;;;;;;;;;;;;;;;;;;;;;;;;;;;;;;;;;;;;;;;;;;;;;;;;;;;;;;;;;;;;;;;;;;;;;;;;;;;;;;;;;;;;;;;;;;;;;;;;;;;;;;;;;;;;;