Year;CITATION;SAMPLE NAME;UNIQUE_ID;LOCATION;LOCATION COMMENT;LATITUDE (MIN.);LONGITUDE (MIN.);LATITUDE (MAX.);LONGITUDE (MAX.);ELEVATION (MIN.);ELEVATION (MAX.);SAMPLING TECHNIQUE;DRILLING DEPTH (MIN.);DRILLING DEPTH (MAX.);LAND/SEA (SAMPLING);ROCK TYPE;ROCK NAME;ROCK TEXTURE;SAMPLE COMMENT;AGE (MIN.);AGE (MAX.);GEOLOGICAL AGE;GEOLOGICAL AGE PREFIX;ERUPTION DAY;ERUPTION MONTH;ERUPTION YEAR;ALTERATION;ALTERATION TYPE;TYPE OF MATERIAL;MINERAL / COMPONENT;SPOT (MINERAL);CRYSTAL;RIM / CORE (MINERAL GRAINS);PRIMARY/SECONDARY;INCLUSION TYPE;MINERAL (INCLUSION);HOSTMINERAL (INCLUSION);HEATING;SIO2(WT%);TIO2(WT%);ZRO2(WT%);HFO2(WT%);THO2(WT%);AL2O3(WT%);CR2O3(WT%);LA2O3(WT%);CE2O3(WT%);ND2O3(WT%);SM2O3(WT%);V2O3(WT%);NB2O5(WT%);FE2O3T(WT%);FE2O3(WT%);FEOT(WT%);FEO(WT%);FET(WT%);CAO(WT%);MGO(WT%);MNO(WT%);BAO(WT%);SRO(WT%);NIO(WT%);ZNO(WT%);RB2O(WT%);K2O(WT%);;;;NA2O(WT%);P2O5(WT%);AS2O5(WT%);H2O(WT%);H2OP(WT%);H2OM(WT%);CO2(WT%);C(WT%);F(WT%);CL(WT%);OH(WT%);SO3(WT%);S(WT%);LOI(WT%);TI(WT%);CA(WT%);K(WT%);LI(PPM);BE(PPM);B(PPM);F(PPM);P(PPM);S(PPM);CL(PPM);AR40(AT/G);;;;AR40(CCMSTP/G);;;;AR40(MOL/G);;;;AR40(PPB);K(PPM);SC(PPM);;;;TI(PPM);V(PPM);;;;CR(PPM);;;;CO(PPM);;;;NI(PPM);;;;CU(PPM);;;;ZN(PPM);;;;GA(PPM);;;;GE(PPM);AS(PPM);AS(PPB);SE(PPM);RB(PPM);;;;;;SR(PPM);;;;;;Y(PPM);;;;ZR(PPM);;;;NB(PPM);;;;MO(PPM);AG(PPM);CD(PPM);IN(PPM);SN(PPM);SB(PPM): altern. values or methods;;;;TE(PPM);CS(PPM): altern. values or methods;;;;BA(PPM): altern. values or methods;;;;LA(PPM): altern. values or methods;;;;CE(PPM): altern. values or methods;;;;PR(PPM);ND(PPM): altern. values or methods;;;;;;SM(PPM): altern. values or methods;;;;EU(PPM): altern. values or methods;;;;GD(PPM): altern. values or methods;;;;TB(PPM): altern. values or methods;;;;DY(PPM): altern. values or methods;;;;HO(PPM);ER(PPM): altern. values or methods;;;;TM(PPM);YB(PPM): altern. values or methods;;;;LU(PPM);HF(PPM);TA(PPM);W(PPM);RE(PPM);AU(PPM);HG(PPM);HG(PPB);TL(PPM);PB(PPM): altern. values or methods;;;;BI(PPM);PO210_ACT(DPM/G);RA226_ACT(DPM/G);TH(PPM): altern. values or methods;;;;U(PPM): altern. values or methods;;;;ND143_ND144;ND143_ND144_INI;EPSILON_ND;EPSILON_ND_INI;SM147_ND144;SR87_SR86;SR87_SR86_INI;EPSILON_SR_INI;RB87_SR86;PB206_PB204: altern. values or methods;;;;PB206_PB204_INI;PB207_PB204: altern. values or methods;;;;PB207_PB204_INI;PB207_PB206;PB208_PB204: altern. values or methods;;;;PB208_PB204_INI;PB208_PB206;HF176_HF177;LU176_HF177;AR38_AR36;AR40_AR36;AR40_AR36_INI;PB206_U238;PB207_U235;RA226_TH230_ACT;PA231_U235_ACT;TH230_TH232_ACT;TH230_U238_ACT;TH232_PB204;U234_U238_ACT;U235_PB204;U238_PB204;U238_TH232_ACT;D7LI(VS LSVEC);D13C(VS PDB);D18O(PER MIL);D18O(VS SMOW);D18O(VS VSMOW);D34S(VS VCDT);ALBITE(MOL%);ANORTHITE(MOL%);CA OLIVINE(MOL%);CHROMITE(MOL%);ENSTATITE(MOL%);FAYALITE(MOL%);FORSTERITE(MOL%);FERROSILITE(MOL%);HEMATITE(MOL%);HERCYNITE(MOL%);ILMENITE(MOL%);MAGNESIOFERRITE(MOL%);MONTICELLITE(MOL%);MAGNETITE(MOL%);ORTHOCLASE(MOL%);PICROCHROMITE(MOL%);SPINEL(MOL%);TEPHROITE(MOL%);ULVOSPINEL(MOL%);WOLLASTONITE(MOL%);AGE(KA): altern. values or methods;;;;;;AGE(MA): altern. values or methods;;;;;;AGE_PB207_U235(MA);AGE_PB206_U238(MA);
1980;[1317] CORNEN G. (1980);samp. 7;;CAMEROON LINE / ANNOBON (PAGALU);;-1.26;5.37;-1.26;5.37;;;OUTCROP;;;SUBAERIAL;VOLCANIC ROCK;BENMOREITE;;PLUG, NOT IN SITU;;;;;;;;;;MINERAL / COMPONENT (INCL. GROUNDMASS);SPINEL;P;PHENOCRYST;;PRIMARY;;;;;0.09;14.27;;;;1.33;0.01;;;;;;;;41.73;;40.04;;0.02;2.46;0.94;;;;;;0;EMP (EPMA);;;0.05;;;;;;;;;;;;;;;;;;;;;;;;;;;;;;;;;;;;;;;;;;;;;;;;;;;;;;;;;;;;;;;;;;;;;;;;;;;;;;;;;;;;;;;;;;;;;;;;;;;;;;;;;;;;;;;;;;;;;;;;;;;;;;;;;;;;;;;;;;;;;;;;;;;;;;;;;;;;;;;;;;;;;;;;;;;;;;;;;;;;;;;;;;;;;;;;;;;;;;;;;;;;;;;;;;;;;;;;;;;;;;;;;;;;;;;;;;;;;;;;;;;;;;;;;;;;35.1;;;;;;;;;;;;;;;;
1980;[1317] CORNEN G. (1980);samp. 7;;CAMEROON LINE / ANNOBON (PAGALU);;-1.26;5.37;-1.26;5.37;;;OUTCROP;;;SUBAERIAL;VOLCANIC ROCK;BENMOREITE;;PLUG, NOT IN SITU;;;;;;;;;;MINERAL / COMPONENT (INCL. GROUNDMASS);SPINEL;Q;GROUNDMASS;;PRIMARY;;;;;0.11;15.39;;;;0;0.07;;;;;;;;39.58;;43.37;;0.08;0.52;1.11;;;;;;0.04;EMP (EPMA);;;0;;;;;;;;;;;;;;;;;;;;;;;;;;;;;;;;;;;;;;;;;;;;;;;;;;;;;;;;;;;;;;;;;;;;;;;;;;;;;;;;;;;;;;;;;;;;;;;;;;;;;;;;;;;;;;;;;;;;;;;;;;;;;;;;;;;;;;;;;;;;;;;;;;;;;;;;;;;;;;;;;;;;;;;;;;;;;;;;;;;;;;;;;;;;;;;;;;;;;;;;;;;;;;;;;;;;;;;;;;;;;;;;;;;;;;;;;;;;;;;;;;;;;;;;;;;;41.9;;;;;;;;;;;;;;;;
1980;[1317] CORNEN G. (1980);samp. 7;;CAMEROON LINE / ANNOBON (PAGALU);;-1.26;5.37;-1.26;5.37;;;OUTCROP;;;SUBAERIAL;VOLCANIC ROCK;BENMOREITE;;PLUG, NOT IN SITU;;;;;;;;;;MINERAL / COMPONENT (INCL. GROUNDMASS);ILMENITE;U;GROUNDMASS;;PRIMARY;;;;;0.3;42.26;;;;0.03;0;;;;;;;;21.43;;32.03;;0.08;2.79;1;;;;;;0;EMP (EPMA);;;0.02;;;;;;;;;;;;;;;;;;;;;;;;;;;;;;;;;;;;;;;;;;;;;;;;;;;;;;;;;;;;;;;;;;;;;;;;;;;;;;;;;;;;;;;;;;;;;;;;;;;;;;;;;;;;;;;;;;;;;;;;;;;;;;;;;;;;;;;;;;;;;;;;;;;;;;;;;;;;;;;;;;;;;;;;;;;;;;;;;;;;;;;;;;;;;;;;;;;;;;;;;;;;;;;;;;;;;;;;;;;;;;;;;;;;;;;;;;;;;;;;;;23.1;;;;;;;;;;;;;;;;;;;;;;;;;;
1982;[1318] LIOTARD J.- M. (1982);samp. A12;;CAMEROON LINE / ANNOBON (PAGALU);;-1.26;5.37;-1.26;5.37;;;OUTCROP;;;SUBAERIAL;VOLCANIC ROCK;BENMOREITE;;PLUG, NOT IN SITU;;;;;;;;;;WHOLE ROCK;;;;;;;;;;;;;;;;;;;;;;;;;;;;;;;;;;;;;;;;;;;;;;;;;;;;;;;;;13;;;;;;;;;;;;;;;;;;;;;4;INAA;;;;79;AAS;;;12;AAS;;;10;AAS;;;13;AAS;;;8;AAS;;;101;AAS;;;;;;;;;;;99;AAS;;;;;961;AAS;;;;;34;XRF;;;633;XRF;;;97;XRF;;;;;;;;;;;;;0.24;INAA;;;1033;AAS;;;87.4;INAA;;;165;INAA;;;;;;;;;;8.1;INAA;;;3.2;INAA;;;;;;;1.1;INAA;;;;;;;;;;;;;2.6;INAA;;;0.4;13.8;6.9;;;;;;;;;;;;;;19.2;INAA;;;1.7;INAA;;;;;;;;;;;;;;;;;;;;;;;;;;;;;;;;;;;;;;;;;;;;;;;;;;;;;;;;;;;;;;;;;;;;;;;;;;;;;;;;;;;;;
1982;[1318] LIOTARD J.- M. (1982);samp. A12;;CAMEROON LINE / ANNOBON (PAGALU);;-1.26;5.37;-1.26;5.37;;;OUTCROP;;;SUBAERIAL;VOLCANIC ROCK;BENMOREITE;;PLUG, NOT IN SITU;;;;;;;;;;MINERAL / COMPONENT (INCL. GROUNDMASS);AMPHIBOLE;;;;PRIMARY;;;;;;;;;;;;;;;;;;;;;;;;;;;;;;;;;;;;;;;;;;;;;;;;;3.51;;;;;;;;;;;;;;;;;;;;;;;;23.4;NOT;;;;417;NOT;;;112;NOT;;;52;NOT;;;78;NOT;;;12;NOT;;;267;NOT;;;;;;;;;;;;;;;;;;;;;;;;;;;;;;;;;;;;;;;;;;;;;;;;;;;;;55.4;NOT;;;120;NOT;;;;;;;;;;16.7;NOT;;;5.1;NOT;;;;;;;2;NOT;;;;;;;;;;;;;3.4;NOT;;;0.5;9;5.9;;;;;;;;;;;;;;2.1;NOT;;;0.5;NOT;;;;;;;;;;;;;;;;;;;;;;;;;;;;;;;;;;;;;;;;;;;;;;;;;;;;;;;;;;;;;;;;;;;;;;;;;;;;;;;;;;;;;
1977;[1334] BATIZA R. (1977);samp. GS-34;;FIEBERLING-GUADALUPE SEAMOUNT TRAIL / GUADALUPE;;27.88;-118.23;28.2;-118.38;;;DREDGE;;;SUBAQUATIC;VOLCANIC ROCK;BENMOREITE;;;;;;;;;;;;WHOLE ROCK;;;;;;;;;;56.4;1.28;;;;19.5;;;;;;;;;5.39;;0.95;;3.43;1.37;0.15;;;;;;3.54;NOT;;;5.67;0.53;;0.72;;;;;;;;;;;;;;;;;;;;;;;;;;;;;;;;;;;;;;;;65;NOT;;;1;NOT;;;15;NOT;;;3;NOT;;;6;NOT;;;;;;;;;;;;;;;78;NOT;;;;;530;NOT;;;;;;;;;719;NOT;;;;;;;;;;;;;;;;;;;;;;;;;;;;;;;;;;;;;;;;;;;;;;;;;;;;;;;;;;;;;;;;;;;;;;;;;;;;;;;9;NOT;;;;;;;;;;;;;;;;;;;;;;;;;;;;;;;;;;;;;;;;;;;;;;;;;;;;;;;;;;;;;;;;;;;;;;;;;;;;;;;;;;;;;;;;;;;;;;;;
1977;[1334] BATIZA R. (1977);samp. G-18;;FIEBERLING-GUADALUPE SEAMOUNT TRAIL / GUADALUPE;;27.88;-118.23;28.2;-118.38;;;DREDGE;;;SUBAQUATIC;VOLCANIC ROCK;BENMOREITE;;;;;;;;;;;;WHOLE ROCK;;;;;;;;;;;;;;;;;;;;;;;;;;;;;;;;;;;;;;;;;;;;;;;;;;;;;;;;;;;;;;;;;;;;;;;;;;;;;;;;;;;;;;;;;;;;;;;;;;;;;;;;;;;;;;;;;;;;;;;;;;;;;;;;;;;;;;;;;;;;;;;;;;;;;;;;;;;;;;;;;;;;;;;;;;;;;;;;;;;;;;;;;;;;;;;;;;;;;;;;;;;;;;;;;;;;;;;;;;;;;;;;;;;;;;;0.7033;;;;;;;;;;;;;;;;;;;;;;;;;;;;;;;;;;;;;;;;;;;;;;;;;;;;;;;;;;;;;;;;;;;;;;;;;;;;;
1977;[1334] BATIZA R. (1977);samp. G-34;;FIEBERLING-GUADALUPE SEAMOUNT TRAIL / GUADALUPE;;27.88;-118.23;28.2;-118.38;;;DREDGE;;;SUBAQUATIC;VOLCANIC ROCK;BENMOREITE;;;;;;;;;;;;WHOLE ROCK;;;;;;;;;;;;;;;;;;;;;;;;;;;;;;;;;;;;;;;;;;;;;;;;;;;;;;;;;;;;;;;;;;;;;;;;;;;;;;;;;;;;;;;;;;;;;;;;;;;;;;;;;;;;;;;;;;;;;;;;;;;;;;;;;;;;;;;;;;;;;;;;;;;;;;;;;;;;;;;;;;;;;;;;;;;;;;;;;;;;;;;;;;;;;;;;;;;;;;;;;;;;;;;;;;;;;;;;;;;;;;;;;;;;;;;0.70321;;;;;;;;;;;;;;;;;;;;;;;;;;;;;;;;;;;;;;;;;;;;;;;;;;;;;;;;;;;;;;;;;;;;;;;;;;;;;
1971;[1365] THOMPSON R. N. (1971);samp. AJ123;10468;COMOROS / ANJOUAN (NZWANI) / DIFFERENTIATED STAGE;;-12.17;44.41;-12.17;44.41;;;OUTCROP;;;SUBAERIAL;VOLCANIC ROCK;BENMOREITE, NEPHELINE;;;;;;;;;;;;WHOLE ROCK;;;;;;;;;;52.56;0.9;;;;18.61;;;;;;;;;3.15;;5.81;;4.72;1.36;0.2;;;;;;3.28;XRF;;;7.17;0.45;;;0.85;;;;;;;;;;;;;;;;;;;;;;;;;;;;;;;;;;;;;;;;;;;;;;;;;;;;;;;;;;;;;;;;;;;;;;;;;;;;;;;;;;;;;;;;;;;;;;;;;;;;;;;;;;;;;;;;;;;;;;;;;;;;;;;;;;;;;;;;;;;;;;;;;;;;;;;;;;;;;;;;;;;;;;;;;;;;;;;;;;;;;;;;;;;;;;;;;;;;;;;;;;;;;;;;;;;;;;;;;;;;;;;;;;;;;;;;;;;;;;;;;;;;;;;;;;;;;;;;;;;;;;;;
1972;[1393] UPTON B. G. J. (1972);samp. RE104;;MASCARENE ISLANDS INCL. REUNION / REUNION / PITON DES NEIGES / DIFFERENTIATED SERIES;SUMMIT, CILAOS PATH, BELOW CREST OF COTEAU KERVEGUEN;-21;55.85;-21;55.85;;;OUTCROP;;;SUBAERIAL;VOLCANIC ROCK;BENMOREITE;;;;;;;;;;;;WHOLE ROCK;;;;;;;;;;55.1;1.36;;;;17.1;;;;;;;;;2.7;;5.7;;4.1;1.6;0.21;;;;;;3.6;NOT;;;6.01;0.36;;;0.38;;;;;;;;;;;;;;;;;;;;;;;;;;;;;;;;;;;;;;;10;XRF;;;10;XRF;;;;;;;;;;;;;;;120;XRF;;;;;;;;;;;115;XRF;;;;;495;XRF;;;;;50;XRF;;;640;XRF;;;;;;;;;;;;;;;;;;;;;1070;XRF;;;;;;;;;;;;;;;;;;;;;;;;;;;;;;;;;;;;;;;;;;;;;;;;;;;;;;;;;;;;;;;;;;;;;;;;;;;;;;;;;;;;;;;;;;;;;;;;;;;;;;;;;;;;;;;;;;;;;;;;;;;;;;;;;;;;;;;;;;;;;;;;;;;;;;;;;;
1972;[1393] UPTON B. G. J. (1972);samp. RE356;9674;MASCARENE ISLANDS INCL. REUNION / REUNION / PITON DES NEIGES / DIFFERENTIATED SERIES;CIRQUE DE SALAZIE, INTRUSIVE SHEET FORMING RIVER BED AT ROCHE PLATE;-21;55.85;-21;55.85;;;OUTCROP;;;SUBAERIAL;VOLCANIC ROCK;BENMOREITE;;;;;;;;;;;;WHOLE ROCK;;;;;;;;;;57.4;1.34;;;;17.2;;;;;;;;;4;;3.1;;4.6;1.6;0.25;;;;;;2.68;NOT;;;6.44;0.39;;;0.88;;0.31;;;;;;;;;;;;;;;;;;;;;;;;;;;;;;;;;;;;;20;XRF;;;17;XRF;;;;;;;;;;;;;;;110;XRF;;;;;;;;;;;50;XRF;;;;;630;XRF;;;;;55;XRF;;;415;XRF;;;;;;;;;;;;;;;;;;;;;865;XRF;;;;;;;;;;;;;;;;;;;;;;;;;;;;;;;;;;;;;;;;;;;;;;;;;;;;;;;;;;;;;;;;;;;;;;;;;;;;;;;;;;;;;;;;;;;;;;;;;;;;;;;;;;;;;;;;;;;;;;;;;;;;;;;;;;;;;;;;;;;;;;;;;;;;;;;;;;
1972;[1393] UPTON B. G. J. (1972);samp. RE100;9668;MASCARENE ISLANDS INCL. REUNION / REUNION / PITON DES NEIGES / DIFFERENTIATED SERIES;SUMMIT, COTEAU KERVEGUEN, CLOSE TO CAVERNE DUFOURG;-21;55.85;-21;55.85;;;OUTCROP;;;SUBAERIAL;VOLCANIC ROCK;BENMOREITE;;;;;;;;;;;;WHOLE ROCK;;;;;;;;;;59.39;1.05;;;;17.98;;;;;;;;;1.37;;4.53;;3.99;0.78;0.19;;;;;;3.08;NOT;;;6.4;0.79;;;0.71;;0.4;;;;;;;;;;;;;;;;;;;;;;;;;;;;;;;;;;;;;20;XRF;;;15;XRF;;;;;;;;;;;;;;;70;XRF;;;;;;;;;;;116;XRF;;;;;660;XRF;;;;;37;XRF;;;495;XRF;;;;;;;;;;;;;;;;;;;;;905;XRF;;;;;;;;;;;;;;;;;;;;;;;;;;;;;;;;;;;;;;;;;;;;;;;;;;;;;;;;;;;;;;;;;;;;;;;;;;;;;;;;;;;;;;;;;;;;;;;;;;;;;;;;;;;;;;;;;;;;;;;;;;;;;;;;;;;;;;;;;;;;;;;;;;;;;;;;;;
1982;[1454] GILLOT P.-Y. (1982);samp. GR2;;MASCARENE ISLANDS INCL. REUNION / REUNION / PITON DES NEIGES / DIFFERENTIATED SERIES;LA MONTEE PANON;-21.11;55.28;-21.11;55.28;115;115;OUTCROP;;;SUBAERIAL;VOLCANIC ROCK;BENMOREITE;VESICULAR;;;;;;;;;SLIGHTLY ALTERED;;WHOLE ROCK;;;;;;;;;;55.2;1.04;;;;15.2;;;;;;;;;9.18;;1.83;;2.55;2.4;0.23;;;;;;3.25;NOT;;;6.25;0.34;;;1.8;0.7;;;;;;;;;;;2.51;;;;;;;;455000000000;MS_ID;;;;;;;;;;;;;;;;;;;;;;;;;;;;;;;;;;;;;;;;;;;;;;;;;;;;;;;;;;;;;;;;;;;;;;;;;;;;;;;;;;;;;;;;;;;;;;;;;;;;;;;;;;;;;;;;;;;;;;;;;;;;;;;;;;;;;;;;;;;;;;;;;;;;;;;;;;;;;;;;;;;;;;;;;;;;;;;;;;;;;;;;;;;;;;;;;;;;;;;;;;;;;;;;;;;;;;;;;;;;;;;;;;;;;170;K-AR;;;;;;;;;;;;;
1982;[1454] GILLOT P.-Y. (1982);samp. IM1;;MASCARENE ISLANDS INCL. REUNION / REUNION / PITON DES NEIGES / DIFFERENTIATED SERIES;EASTERN FLANK OF CIRQUE DE SALAZIE, AT ILET MORIN;-20.99;55.57;-20.99;55.57;320;320;OUTCROP;;;SUBAERIAL;VOLCANIC ROCK;BENMOREITE;;;;;;;;;;MODERATELY ALTERED;;MINERAL / COMPONENT (INCL. GROUNDMASS);ANORTHOCLASE;;PHENOCRYST;;PRIMARY;;;;;65.31;0.11;;;;19.04;;;;;;;;;0.09;;0.25;;0.6;0.54;;;;;;;5.35;NOT;;;7.42;0.06;;;0.27;0.07;;;;;;;;;;;4.46;;;;;;;;900000000000;MS_ID;;;;;;;;;;;;;;;;;;;;;;;;;;;;;;;;;;;;;;;;;;;;;;;;;;;;;;;;;;;;;;;;;;;;;;;;;;;;;;;;;;;;;;;;;;;;;;;;;;;;;;;;;;;;;;;;;;;;;;;;;;;;;;;;;;;;;;;;;;;;;;;;;;;;;;;;;;;;;;;;;;;;;;;;;;;;;;;;;;;;;;;;;;;;;;;;;;;;;;;;;;;;;;;;;;;;;;;;;;;;;;;;;;;;;188;K-AR;;;;;;;;;;;;;
1982;[1454] GILLOT P.-Y. (1982);samp. CI;;MASCARENE ISLANDS INCL. REUNION / REUNION / PITON DES NEIGES / DIFFERENTIATED SERIES;COTEAU KERVEGUEN, NEAR CAVERNE DUFOUR;-21.1;55.5;-21.1;55.5;2510;2510;OUTCROP;;;SUBAERIAL;VOLCANIC ROCK;BENMOREITE;PORPHYRIC;;;;;;;;;FRESH;;WHOLE ROCK;;;;;;;;;;56.85;1.42;;;;17;;;;;;;;;7.98;;;;3.3;2.7;0.14;;;;;;3.2;NOT;;;6.05;0.41;;;0.1;0.9;;;;;;;;;;;2.91;;;;;;;;9200000000000;MS_ID;9400000000000;MS_ID;;;;;;;;;;;;;;;;;;;;;;;;;;;;;;;;;;;;;;;;;;;;;;;;;;;;;;;;;;;;;;;;;;;;;;;;;;;;;;;;;;;;;;;;;;;;;;;;;;;;;;;;;;;;;;;;;;;;;;;;;;;;;;;;;;;;;;;;;;;;;;;;;;;;;;;;;;;;;;;;;;;;;;;;;;;;;;;;;;;;;;;;;;;;;;;;;;;;;;;;;;;;;;;;;;;;;;;;;;;;;;;;;;;29;K-AR;29.5;K-AR;;;;;;;;;;;
1982;[1454] GILLOT P.-Y. (1982);samp. IM1;;MASCARENE ISLANDS INCL. REUNION / REUNION / PITON DES NEIGES / DIFFERENTIATED SERIES;EASTERN FLANK OF CIRQUE DE SALAZIE, AT ILET MORIN;-20.99;55.57;-20.99;55.57;320;320;OUTCROP;;;SUBAERIAL;VOLCANIC ROCK;BENMOREITE;;;;;;;;;;MODERATELY ALTERED;;WHOLE ROCK;;;;;;;;;;59.3;0.64;;;;16.79;;;;;;;;;6.49;;2.63;;2.99;1.28;0.07;;;;;;3.11;NOT;;;4.78;0.08;;;1.28;0.72;;;;;;;;;;;;;;;;;;;;;;;;;;;;;;;;;;;;;;;;;;;;;;;;;;;;;;;;;;;;;;;;;;;;;;;;;;;;;;;;;;;;;;;;;;;;;;;;;;;;;;;;;;;;;;;;;;;;;;;;;;;;;;;;;;;;;;;;;;;;;;;;;;;;;;;;;;;;;;;;;;;;;;;;;;;;;;;;;;;;;;;;;;;;;;;;;;;;;;;;;;;;;;;;;;;;;;;;;;;;;;;;;;;;;;;;;;;;;;;;;;;;;;;;;;;;;;;;;;;;;;;
1967;[1463] UPTON B. G. J. (1967);samp. RE30B;;MASCARENE ISLANDS INCL. REUNION / REUNION / PITON DES NEIGES;BRAS ROUGE DIFFERENTIATED SILL;-21.12;55.46;-21.12;55.46;820;820;OUTCROP;;;SUBAERIAL;VOLCANIC ROCK;BENMOREITE;;LATE-STAGE VEIN;;;;;;;;;;WHOLE ROCK;;;;;;;;;;59.22;1.21;;;;18.28;;;;;;;;;3.01;;1.6;;3.27;1.28;0.09;;;;;;4.86;NOT;;;4.91;0.35;;0.99;;;0.3;;;;;;0.12;;;;;;;;;;;;;;;;;;;;;;;;;;;;;;;;;;;;;;;;;;;;;;;;;;;;;;;;;;;;;;;;;;;;;;;;;;;;;;;;;;;;;;;;;;;;;;;;;;;;;;;;;;;;;;;;;;;;;;;;;;;;;;;;;;;;;;;;;;;;;;;;;;;;;;;;;;;;;;;;;;;;;;;;;;;;;;;;;;;;;;;;;;;;;;;;;;;;;;;;;;;;;;;;;;;;;;;;;;;;;;;;;;;;;;;;;;;;;;;;;;;;;;;;;;;;;;;;
1996;[1624] LE DEZ A. (1996);samp. P11B;;MARQUESAS / NUKU HIVA / TAIOHAE / INNER VOLCANO;;-8.93;-140;-8.93;-140;;;OUTCROP;;;SUBAERIAL;VOLCANIC ROCK;BENMOREITE;;;;;;;;;;;;WHOLE ROCK;;;;;;;;;;58.2;1.15;;;;18.33;;;;;;;;5.42;;;;;2.95;1.26;0.16;;;;;;5.27;ICPAES;;;5.18;0.34;;;;;;;;;;;;0.98;;;;;;;;;;;;;;;;;;;;;;;;;4;ICPAES;;;;53;ICPAES;;;16;ICPAES;;;5;ICPAES;;;7;ICPAES;;;;;;;;;;;;;;;;;;;165;AES;;;;;446;ICPAES;;;;;35;ICPAES;;;702;ICPAES;;;101;ICPAES;;;;;;;;;;;;;;;;;875;ICPAES;;;97;ICPAES;;;162;ICPAES;;;;63;ICPAES;;;;;;;;;2.35;ICPAES;;;;;;;;;;;6.1;ICPAES;;;;3.5;ICPAES;;;;3.15;ICPAES;;;;;;;;;;;;;;;;;;;;;;;;;;;;;;;;;;;;;;;;;;;;;;;;;;;;;;;;;;;;;;;;;;;;;;;;;;;;;;;;;;;;;;;;;;;;;;;;;;;;;;;;;;;;;
1996;[1624] LE DEZ A. (1996);samp. 762;;MARQUESAS / NUKU HIVA / TAIOHAE / INNER VOLCANO;;-8.93;-140;-8.93;-140;;;OUTCROP;;;SUBAERIAL;VOLCANIC ROCK;BENMOREITE;;;;;;;;;;;;WHOLE ROCK;;;;;;;;;;59.2;1.08;;;;18.7;;;;;;;;4.73;;;;;2.2;0.86;0.05;;;;;;4.64;ICPAES;;;5.96;0.37;;;;;;;;;;;;1.84;;;;;;;;;;;;;;;;;;;;;;;;;2;ICPAES;;;;25;ICPAES;;;3;ICPAES;;;4;ICPAES;;;2;ICPAES;;;;;;;;;;;;;;;;;;;140;AES;;;;;622;ICPAES;;;;;36;ICPAES;;;630;ICPAES;;;92;ICPAES;;;;;;;;;;;;;;;;;1215;ICPAES;;;78;ICPAES;;;134;ICPAES;;;;55;ICPAES;;;;;;;;;2.7;ICPAES;;;;;;;;;;;5.8;ICPAES;;;;3.2;ICPAES;;;;3.2;ICPAES;;;;;;;;;;;;;;;;;;;;;;;;;;;;;;;;;;;;;;;;;;;;;;;;;;;;;;;;;;;;;;;;;;;;;;;;;;;;;;;;;;;;;;;;;;;;;;;;;;;;;;;;;;;;;
1996;[1624] LE DEZ A. (1996);samp. 76F;23603;MARQUESAS / NUKU HIVA / TAIOHAE / INNER VOLCANO;NEAR TOVII;-8.93;-140;-8.93;-140;500;500;OUTCROP;;;SUBAERIAL;VOLCANIC ROCK;BENMOREITE;;;;;;;;;;;;WHOLE ROCK;;;;;;;;;;58.4;1.15;;;;17.75;;;;;;;;5.5;;;;;3.45;1.47;0.18;;;;;;5.32;ICPAES;;;5.5;0.34;;;;;;;;;;;;0.81;;;;;;;;;;;;;;;;;;;;;;;;;4;ICPAES;;;;54;ICPAES;;;16;ICPAES;;;7;ICPAES;;;6;ICPAES;;;;;;;;;;;;;;;;;;;180;AES;;;;;486;ICPAES;;;;;31;ICPAES;;;660;ICPAES;;;100;ICPAES;;;;;;;;;;;;;;;;;800;ICPAES;;;88;ICPAES;;;159;ICPAES;;;;57;ICPAES;;;;;;;;;2.25;ICPAES;;;;;;;;;;;5.2;ICPAES;;;;3;ICPAES;;;;2.85;ICPAES;;;;;;;;;;;;;;;;;;;;;;;;;;;;;;;;;;;;;;;;;;;;;;;;;;;;;;;;;;;;;;;;;;;;;;;;;;;;;;;;;;;;;;;;;;;;;;;;;;;;;;;;;;;;;
1997;[1627] WOLFE E. W. (1997);samp. IP-4;;HAWAIIAN ISLANDS / HAWAII / MAUNA KEA;NOHONAOHAE QUADRANGLE;19.63;-155.62;19.75;-155.75;;;OUTCROP;;;SUBAERIAL;VOLCANIC ROCK;BENMOREITE;;;;;;;;;;;;WHOLE ROCK;;;;;;;;;;54.7;1.6;;;;17.6;;;;;;;;9.13;;;;;4.96;2.25;0.23;;;;;;2.6;XRF;;;5.73;0.98;;0.15;;;0;;;;;;;;;;;;;;;;;;;;;;;;;;;;;;;;;;;;;;;;;;;;;;;;;;;;;;;;;;;;;;;;;;;;;;;;;;;;;;;;;;;;;;;;;;;;;;;;;;;;;;;;;;;;;;;;;;;;;;;;;;;;;;;;;;;;;;;;;;;;;;;;;;;;;;;;;;;;;;;;;;;;;;;;;;;;;;;;;;;;;;;;;;;;;;;;;;;;;;;;;;;;;;;;;;;;;;;;;;;;;;;;;;;;;;;;;;;;;;;;;;;;;;;;;;;;;;;;;;;;;;
1997;[1627] WOLFE E. W. (1997);samp. IP-19;;HAWAIIAN ISLANDS / HAWAII / MAUNA KEA;NOHONAOHAE QUADRANGLE;19.63;-155.62;19.75;-155.75;;;OUTCROP;;;SUBAERIAL;VOLCANIC ROCK;BENMOREITE;;;;;;;;;;;;WHOLE ROCK;;;;;;;;;;54.17;1.6;;;;17.11;;;;;;;;9.58;;;;;5;2.63;0.22;;;;;;2.55;XRF;;;5.48;1.07;;0.14;;;;;;;;;;;;;;;;;;;;;;;;;;;;;;;;;;;;;;;;;;;;;;;;;;;;;;;;;;;;;;;;;;;;;;;;;;;;;;;;;;;;;;;;;;;;;;;;;;;;;;;;;;;;;;;;;;;;;;;;;;;;;;;;;;;;;;;;;;;;;;;;;;;;;;;;;;;;;;;;;;;;;;;;;;;;;;;;;;;;;;;;;;;;;;;;;;;;;;;;;;;;;;;;;;;;;;;;;;;;;;;;;;;;;;;;;;;;;;;;;;;;;;;;;;;;;;;;;;;;;;;;;
1997;[1627] WOLFE E. W. (1997);samp. IQ-1;;HAWAIIAN ISLANDS / HAWAII / MAUNA KEA;MAKAHALAU QUADRANGLE;19.63;-155.5;19.75;-155.62;;;OUTCROP;;;SUBAERIAL;VOLCANIC ROCK;BENMOREITE;;;;;;;;;;;;WHOLE ROCK;;;;;;;;;;54.2;1.58;;;;17.7;;;;;;;;;2.62;;5.85;;4.93;2.26;0.23;;;;;;2.59;XRF;;;5.67;0.98;;0;;;0;;;;;;;;;;;;;;;;;;;;;;;;;;;;;;;;;;;;;;;;;;;;;;;;;;;;;;;;;;;;;;;;;;;;;;;;;;;;;;;;;;;;;;;;;;;;;;;;;;;;;;;;;;;;;;;;;;;;;;;;;;;;;;;;;;;;;;;;;;;;;;;;;;;;;;;;;;;;;;;;;;;;;;;;;;;;;;;;;;;;;;;;;;;;;;;;;;;;;;;;;;;;;;;;;;;;;;;;;;;;;;;;;;;;;;;;;;;;;;;;;;;;;;;;;;;;;;;;;;;;;;
1997;[1627] WOLFE E. W. (1997);samp. IQ-12;;HAWAIIAN ISLANDS / HAWAII / MAUNA KEA;MAKAHALAU QUADRANGLE;19.63;-155.5;19.75;-155.62;;;OUTCROP;;;SUBAERIAL;VOLCANIC ROCK;BENMOREITE;;;;;;;;;;;;WHOLE ROCK;;;;;;;;;;54.5;1.46;;;;17.4;;;;;;;;;5.12;;3.86;;4.6;2.2;0.23;;;;;;2.72;XRF;;;5.58;1.03;;0.25;;;0;;;;;;;;;;;;;;;;;;;;;;;;;;;;;;;;;;;;;;;;;;;;;;;;;;;;;;;;;;;;;;;;;;;;;;;;;;;;;;;;;;;;;;;;;;;;;;;;;;;;;;;;;;;;;;;;;;;;;;;;;;;;;;;;;;;;;;;;;;;;;;;;;;;;;;;;;;;;;;;;;;;;;;;;;;;;;;;;;;;;;;;;;;;;;;;;;;;;;;;;;;;;;;;;;;;;;;;;;;;;;;;;;;;;;;;;;;;;;;;;;;;;;;;;;;;;;;;;;;;;;;
1997;[1627] WOLFE E. W. (1997);samp. IR-13;;HAWAIIAN ISLANDS / HAWAII / MAUNA KEA;UMIKOA QUADRANGLE;19.63;-155.37;19.75;-155.5;;;OUTCROP;;;SUBAERIAL;VOLCANIC ROCK;BENMOREITE;;;;;;;;;;;;WHOLE ROCK;;;;;;;;;;55.1;1.37;;;;17.4;;;;;;;;;2.71;;5.87;;4.34;2.18;0.23;;;;;;2.73;XRF;;;5.51;0.97;;0;;;0;;;;;;;;;;;;;;;;;;;;;;;;;;;;;;;;;;;;;;;;;;;;;;;;;;;;;;;;;;;;;;;;;;;;;;;;;;;;;;;;;;;;;;;;;;;;;;;;;;;;;;;;;;;;;;;;;;;;;;;;;;;;;;;;;;;;;;;;;;;;;;;;;;;;;;;;;;;;;;;;;;;;;;;;;;;;;;;;;;;;;;;;;;;;;;;;;;;;;;;;;;;;;;;;;;;;;;;;;;;;;;;;;;;;;;;;;;;;;;;;;;;;;;;;;;;;;;;;;;;;;;
1997;[1627] WOLFE E. W. (1997);samp. JQ-4;;HAWAIIAN ISLANDS / HAWAII / MAUNA KEA;KUKUIHAELE QUADRANGLE;19.75;-155.5;19.88;-155.62;;;OUTCROP;;;SUBAERIAL;VOLCANIC ROCK;BENMOREITE;;;;;;;;;;;;WHOLE ROCK;;;;;;;;;;54.7;1.25;;;;18.1;;;;;;;;8.99;;;;;3.82;2.25;0.21;;;;;;2.75;XRF;;;5.25;0.88;;0.96;;;0;;;;;;;;;;;;;;;;;;;;;;;;;;;;;;;;;;;;;;;;;;;;;;;;;;;;;;;;;;;;;;;;;;;;;;;;;;;;;;;;;;;;;;;;;;;;;;;;;;;;;;;;;;;;;;;;;;;;;;;;;;;;;;;;;;;;;;;;;;;;;;;;;;;;;;;;;;;;;;;;;;;;;;;;;;;;;;;;;;;;;;;;;;;;;;;;;;;;;;;;;;;;;;;;;;;;;;;;;;;;;;;;;;;;;;;;;;;;;;;;;;;;;;;;;;;;;;;;;;;;;;
1997;[1627] WOLFE E. W. (1997);samp. JQ-6;;HAWAIIAN ISLANDS / HAWAII / MAUNA KEA;KUKUIHAELE QUADRANGLE;19.75;-155.5;19.88;-155.62;;;OUTCROP;;;SUBAERIAL;VOLCANIC ROCK;BENMOREITE;;;;;;;;;;;;WHOLE ROCK;;;;;;;;;;54.7;1.49;;;;17.4;;;;;;;;9.49;;;;;4.62;2.2;0.24;;;;;;2.67;XRF;;;5.42;1.06;;0.34;;;0;;;;;;;;;;;;;;;;;;;;;;;;;;;;;;;;;;;;;;;;;;;;;;;;;;;;;;;;;;;;;;;;;;;;;;;;;;;;;;;;;;;;;;;;;;;;;;;;;;;;;;;;;;;;;;;;;;;;;;;;;;;;;;;;;;;;;;;;;;;;;;;;;;;;;;;;;;;;;;;;;;;;;;;;;;;;;;;;;;;;;;;;;;;;;;;;;;;;;;;;;;;;;;;;;;;;;;;;;;;;;;;;;;;;;;;;;;;;;;;;;;;;;;;;;;;;;;;;;;;;;;