Year;CITATION;SAMPLE NAME;UNIQUE_ID;LOCATION;LOCATION COMMENT;LATITUDE (MIN.);LONGITUDE (MIN.);LATITUDE (MAX.);LONGITUDE (MAX.);ELEVATION (MIN.);ELEVATION (MAX.);SAMPLING TECHNIQUE;DRILLING DEPTH (MIN.);DRILLING DEPTH (MAX.);LAND/SEA (SAMPLING);ROCK TYPE;ROCK NAME;ROCK TEXTURE;SAMPLE COMMENT;AGE (MIN.);AGE (MAX.);GEOLOGICAL AGE;GEOLOGICAL AGE PREFIX;ERUPTION DAY;ERUPTION MONTH;ERUPTION YEAR;ALTERATION;ALTERATION TYPE;TYPE OF MATERIAL;MINERAL / COMPONENT;SPOT (MINERAL);CRYSTAL;RIM / CORE (MINERAL GRAINS);PRIMARY/SECONDARY;INCLUSION TYPE;MINERAL (INCLUSION);HOSTMINERAL (INCLUSION);HEATING;SIO2(WT%);TIO2(WT%);ZRO2(WT%);HFO2(WT%);THO2(WT%);AL2O3(WT%);CR2O3(WT%);LA2O3(WT%);CE2O3(WT%);ND2O3(WT%);SM2O3(WT%);V2O3(WT%);NB2O5(WT%);FE2O3T(WT%);FE2O3(WT%);FEOT(WT%);FEO(WT%);FET(WT%);CAO(WT%);MGO(WT%);MNO(WT%);BAO(WT%);SRO(WT%);NIO(WT%);ZNO(WT%);RB2O(WT%);K2O(WT%);;;;NA2O(WT%);P2O5(WT%);AS2O5(WT%);H2O(WT%);H2OP(WT%);H2OM(WT%);CO2(WT%);C(WT%);F(WT%);CL(WT%);OH(WT%);SO3(WT%);S(WT%);LOI(WT%);TI(WT%);CA(WT%);K(WT%);LI(PPM);BE(PPM);B(PPM);F(PPM);P(PPM);S(PPM);CL(PPM);AR40(AT/G);;;;AR40(CCMSTP/G);;;;AR40(MOL/G);;;;AR40(PPB);K(PPM);SC(PPM);;;;TI(PPM);V(PPM);;;;CR(PPM);;;;CO(PPM);;;;NI(PPM);;;;CU(PPM);;;;ZN(PPM);;;;GA(PPM);;;;GE(PPM);AS(PPM);AS(PPB);SE(PPM);RB(PPM);;;;;;SR(PPM);;;;;;Y(PPM);;;;ZR(PPM);;;;NB(PPM);;;;MO(PPM);AG(PPM);CD(PPM);IN(PPM);SN(PPM);SB(PPM): altern. values or methods;;;;TE(PPM);CS(PPM): altern. values or methods;;;;BA(PPM): altern. values or methods;;;;LA(PPM): altern. values or methods;;;;CE(PPM): altern. values or methods;;;;PR(PPM);ND(PPM): altern. values or methods;;;;;;SM(PPM): altern. values or methods;;;;EU(PPM): altern. values or methods;;;;GD(PPM): altern. values or methods;;;;TB(PPM): altern. values or methods;;;;DY(PPM): altern. values or methods;;;;HO(PPM);ER(PPM): altern. values or methods;;;;TM(PPM);YB(PPM): altern. values or methods;;;;LU(PPM);HF(PPM);TA(PPM);W(PPM);RE(PPM);AU(PPM);HG(PPM);HG(PPB);TL(PPM);PB(PPM): altern. values or methods;;;;BI(PPM);PO210_ACT(DPM/G);RA226_ACT(DPM/G);TH(PPM): altern. values or methods;;;;U(PPM): altern. values or methods;;;;ND143_ND144;ND143_ND144_INI;EPSILON_ND;EPSILON_ND_INI;SM147_ND144;SR87_SR86;SR87_SR86_INI;EPSILON_SR_INI;RB87_SR86;PB206_PB204: altern. values or methods;;;;PB206_PB204_INI;PB207_PB204: altern. values or methods;;;;PB207_PB204_INI;PB207_PB206;PB208_PB204: altern. values or methods;;;;PB208_PB204_INI;PB208_PB206;HF176_HF177;LU176_HF177;AR38_AR36;AR40_AR36;AR40_AR36_INI;PB206_U238;PB207_U235;RA226_TH230_ACT;PA231_U235_ACT;TH230_TH232_ACT;TH230_U238_ACT;TH232_PB204;U234_U238_ACT;U235_PB204;U238_PB204;U238_TH232_ACT;D7LI(VS LSVEC);D13C(VS PDB);D18O(PER MIL);D18O(VS SMOW);D18O(VS VSMOW);D34S(VS VCDT);ALBITE(MOL%);ANORTHITE(MOL%);CA OLIVINE(MOL%);CHROMITE(MOL%);ENSTATITE(MOL%);FAYALITE(MOL%);FORSTERITE(MOL%);FERROSILITE(MOL%);HEMATITE(MOL%);HERCYNITE(MOL%);ILMENITE(MOL%);MAGNESIOFERRITE(MOL%);MONTICELLITE(MOL%);MAGNETITE(MOL%);ORTHOCLASE(MOL%);PICROCHROMITE(MOL%);SPINEL(MOL%);TEPHROITE(MOL%);ULVOSPINEL(MOL%);WOLLASTONITE(MOL%);AGE(KA): altern. values or methods;;;;;;AGE(MA): altern. values or methods;;;;;;AGE_PB207_U235(MA);AGE_PB206_U238(MA);
1990;[8087] WOLDEGABRIEL G. (1990);samp. ET45;;EAST AFRICAN RIFT / ETHIOPIAN RIFT / MAIN ETHIOPIAN RIFT;AWASA EASTERN RIFT MARGIN AND THE ADJACENT RIFT FLOOR;7.05;38.33;7.05;38.33;;;OUTCROP;;;SUBAERIAL;VOLCANIC ROCK;BENMOREITE;;;;;;;;;;;;WHOLE ROCK;;;;;;;;;;;;;;;;;;;;;;;;;;;;;;;;;;;;2.607;AES;;;;;;;;;;;;;;;;;;;;;;;;;;;;;;;;;;;4.77E-12;MS_ID;;;;;;;;;;;;;;;;;;;;;;;;;;;;;;;;;;;;;;;;;;;;;;;;;;;;;;;;;;;;;;;;;;;;;;;;;;;;;;;;;;;;;;;;;;;;;;;;;;;;;;;;;;;;;;;;;;;;;;;;;;;;;;;;;;;;;;;;;;;;;;;;;;;;;;;;;;;;;;;;;;;;;;;;;;;;;;;;;;;;;;;;;;;;;;;;;;;;;;;;;;;;;;;;;;;;;;;;;;;;;;;;;;;1.27;K-AR;;;;;;;
1986;[8089] DE MULDER M.(1986)  [GeoReM [1232] ];samp. BE490;;EAST AFRICAN RIFT / WESTERN EAST AFRICAN RIFT (TANGANYIKA RIFT) / VIRUNGA PROVINCE / KARISIMBI;RWANDA;-1.52;29.43;-1.52;29.43;;;OUTCROP;;;SUBAERIAL;VOLCANIC ROCK;BENMOREITE;;;;;NEOGENE;;;;;;;WHOLE ROCK;;;;;;;;;;55;2.1;;;;17.19;;;;;;;;;2.53;;4.42;;5.29;1.06;0.12;;;;;;5.37;NOT;;;3.99;0.62;;0.71;;;;;;;;;;;;;;;;;;;;;;;;;;;;;;;;;;;6.39;INAA;;;;;;;;5;INAA;;;15.3;INAA;;;;;;;;;;;;;;;;;;;;;;;212;XRF;;;;;1175;XRF;;;;;;;;;344;XRF;;;;;;;;;;;;;;;;;;;;;1882;INAA;;;133;INAA;;;271;INAA;;;;92;INAA;;;;;13.3;INAA;;;3.05;INAA;;;;;;;1.21;INAA;;;;;;;;;;;;;2.14;INAA;;;0.29;8.1;8.3;;;;;;;;;;;;;;33.9;INAA;;;7.1;INAA;;;0.512383;;;;;0.70799;;;;;;;;;;;;;;;;;;;;;;;;;;;;;;;;;;;;;;;;;;;;;;;;;;;;;;;;;;;;;;;;;;;;;;;;;;;;;
1986;[8089] DE MULDER M.(1986)  [GeoReM [1232] ];samp. BE396;;EAST AFRICAN RIFT / WESTERN EAST AFRICAN RIFT (TANGANYIKA RIFT) / VIRUNGA PROVINCE / KARISIMBI;RWANDA;-1.52;29.43;-1.52;29.43;;;OUTCROP;;;SUBAERIAL;VOLCANIC ROCK;BENMOREITE;;;;;NEOGENE;;;;;;;WHOLE ROCK;;;;;;;;;;57.21;1.52;;;;18.17;;;;;;;;;2.94;;2.95;;4.32;0.86;0.13;;;;;;5.52;NOT;;;4.33;0.49;;0.56;;;;;;;;;;;;;;;;;;;;;;;;;;;;;;;;;;;5.07;INAA;;;;;;;;0;INAA;;;7.8;INAA;;;;;;;;;;;;;;;;;;;;;;;184;XRF;;;;;1210;XRF;;;;;;;;;352;XRF;;;;;;;;;;;;;;;;;;;;;1718;INAA;;;127;INAA;;;241;INAA;;;;82;INAA;;;;;12.2;INAA;;;3.09;INAA;;;;;;;1.12;INAA;;;;;;;;;;;;;2.5;INAA;;;0.33;8.4;9.3;;;;;;;;;;;;;;29.9;INAA;;;6.1;INAA;;;;;;;;;;;;;;;;;;;;;;;;;;;;;;;;;;;;;;;;;;;;;;;;;;;;;;;;;;;;;;;;;;;;;;;;;;;;;;;;;;;;;
1977;[8094] BAKER B. H. (1977);samp. KLR-3;;EAST AFRICAN RIFT / KENYA RIFT (EASTERN EAST AFRICAN RIFT) / SOUTHERN KENYA RIFT;SOUTHERN GREGORY RIFT IMMEDIATELY NORTH OF OLORGESAILIE VOLCANO;-1.5;36.5;-1.5;36.5;;;OUTCROP;;;SUBAERIAL;VOLCANIC ROCK;BENMOREITE;GRANULAR GROUNDMASS;;1400000;1650000;PLEISTOCENE;;;;;;;WHOLE ROCK;;;;;;;;;;58.48;1.57;;;;16.16;;;;;;;;;1.59;;4.78;;4.61;2.14;0.21;;;;;;4.04;XRF;;;5.53;0.39;;;;;;;;;;;;;;;;;;;;;;;;;;;;;;;;;;;;;14;INAA;;;;;;;;20;INAA;;;14;INAA;;;;;;;;;;;;;;;;;;;;;;;67;XRF;;;;;337;XRF;;;;;44;XRF;;;259;XRF;;;113;XRF;;;;;;;;;;;;;;;;;1040;INAA;;;76.7;INAA;;;128;INAA;;;;57;INAA;;;;;10.83;INAA;;;3.39;INAA;;;;;;;1.32;INAA;;;;;;;;;;;;;3.6;INAA;;;0.58;9;5.2;;;;;;;;;;;;;;10.4;INAA;;;;;;;;;;;;;;;;;;;;;;;;;;;;;;;;;;;;;;;;;;;;;;;;;;;;;;;;;;;;;;;;;;;;;;;;;;;;;;;;;;;;;;;;;
1977;[8094] BAKER B. H. (1977);samp. KLR-61;;EAST AFRICAN RIFT / KENYA RIFT (EASTERN EAST AFRICAN RIFT) / SOUTHERN KENYA RIFT;SOUTHERN GREGORY RIFT IMMEDIATELY NORTH OF OLORGESAILIE VOLCANO;-1.5;36.5;-1.5;36.5;;;OUTCROP;;;SUBAERIAL;VOLCANIC ROCK;BENMOREITE;GRANULAR GROUNDMASS;;1400000;1650000;PLEISTOCENE;;;;;;;WHOLE ROCK;;;;;;;;;;58.85;1.6;;;;16.22;;;;;;;;;1.7;;5.1;;4.79;2.37;0.25;;;;;;3.65;XRF;;;5.1;0.36;;;;;;;;;;;;;;;;;;;;;;;;;;;;;;;;;;;;;15;INAA;;;;;;;;9.9;INAA;;;21;INAA;;;;;;;;;;;;;;;;;;;;;;;53;XRF;;;;;317;XRF;;;;;51;XRF;;;336;XRF;;;99;XRF;;;;;;;;;;;;;;;;;1060;INAA;;;93;INAA;;;120;INAA;;;;64;INAA;;;;;11.69;INAA;;;3.45;INAA;;;;;;;1.34;INAA;;;;;;;;;;;;;4.9;INAA;;;0.85;7.4;4.8;;;;;;;;;;;;;;8.2;INAA;;;;;;;;;;;;;;;;;;;;;;;;;;;;;;;;;;;;;;;;;;;;;;;;;;;;;;;;;;;;;;;;;;;;;;;;;;;;;;;;;;;;;;;;;
1977;[8094] BAKER B. H. (1977);samp. KLR-18;;EAST AFRICAN RIFT / KENYA RIFT (EASTERN EAST AFRICAN RIFT) / SOUTHERN KENYA RIFT;SOUTHERN GREGORY RIFT IMMEDIATELY NORTH OF OLORGESAILIE VOLCANO;-1.5;36.5;-1.5;36.5;;;OUTCROP;;;SUBAERIAL;VOLCANIC ROCK;BENMOREITE;GRANULAR GROUNDMASS;;1400000;1650000;PLEISTOCENE;;;;;;;WHOLE ROCK;;;;;;;;;;59.24;1.31;;;;15.92;;;;;;;;;1.67;;5.02;;4.77;2.27;0.2;;;;;;4.1;XRF;;;5.2;0.28;;;;;;;;;;;;;;;;;;;;;;;;;;;;;;;;;;;;;14;INAA;;;;;;;;23;INAA;;;17;INAA;;;;;;;;;;;;;;;;;;;;;;;70;XRF;;;;;225;XRF;;;;;53;XRF;;;387;XRF;;;89;XRF;;;;;;;;;;;;;;;;;750;INAA;;;79;INAA;;;130;INAA;;;;63;INAA;;;;;11.29;INAA;;;3.04;INAA;;;;;;;1.18;INAA;;;;;;;;;;;;;4.5;INAA;;;0.81;10.4;4.8;;;;;;;;;;;;;;9.9;INAA;;;;;;;;;;;;;;;;;;;;;;;;;;;;;;;;;;;;;;;;;;;;;;;;;;;;;;;;;;;;;;;;;;;;;;;;;;;;;;;;;;;;;;;;;
1977;[8094] BAKER B. H. (1977);samp. KLR-57;;EAST AFRICAN RIFT / KENYA RIFT (EASTERN EAST AFRICAN RIFT) / SOUTHERN KENYA RIFT;SOUTHERN GREGORY RIFT IMMEDIATELY NORTH OF OLORGESAILIE VOLCANO;-1.5;36.5;-1.5;36.5;;;OUTCROP;;;SUBAERIAL;VOLCANIC ROCK;BENMOREITE;GRANULAR GROUNDMASS;;1400000;1650000;PLEISTOCENE;;;;;;;WHOLE ROCK;;;;;;;;;;61.75;1.21;;;;16.38;;;;;;;;;1.48;;4.44;;3.03;0.66;0.2;;;;;;4.72;XRF;;;5.83;0.29;;;;;;;;;;;;;;;;;;;;;;;;;;;;;;;;;;;;;10.4;INAA;;;;;;;;14;INAA;;;10.5;INAA;;;;;;;;;;;;;;;;;;;;;;;90;XRF;;;;;178;XRF;;;;;;;;;464;XRF;;;;;;;;;;;;;;;;;;;;;790;INAA;;;184;INAA;;;208;INAA;;;;126;INAA;;;;;23.9;INAA;;;4.52;INAA;;;;;;;3.1;INAA;;;;;;;;;;;;;9;INAA;;;1.28;11.2;5.5;;;;;;;;;;;;;;13.3;INAA;;;;;;;;;;;;;;;;;;;;;;;;;;;;;;;;;;;;;;;;;;;;;;;;;;;;;;;;;;;;;;;;;;;;;;;;;;;;;;;;;;;;;;;;;
1977;[8094] BAKER B. H. (1977);samp. KLR-58;;EAST AFRICAN RIFT / KENYA RIFT (EASTERN EAST AFRICAN RIFT) / SOUTHERN KENYA RIFT;SOUTHERN GREGORY RIFT IMMEDIATELY NORTH OF OLORGESAILIE VOLCANO;-1.5;36.5;-1.5;36.5;;;OUTCROP;;;SUBAERIAL;VOLCANIC ROCK;BENMOREITE;GRANULAR GROUNDMASS;;1400000;1650000;PLEISTOCENE;;;;;;;WHOLE ROCK;;;;;;;;;;62.11;1.17;;;;16;;;;;;;;;1.44;;4.32;;3.33;0.69;0.22;;;;;;4.73;XRF;;;5.74;0.27;;;;;;;;;;;;;;;;;;;;;;;;;;;;;;;;;;;;;9.8;INAA;;;;;;;;9.4;INAA;;;9;INAA;;;;;;;;;;;;;;;;;;;;;;;92;XRF;;;;;183;XRF;;;;;57;XRF;;;469;XRF;;;114;XRF;;;;;;;;;;;;;;;;;810;INAA;;;96;INAA;;;154;INAA;;;;67;INAA;;;;;13.06;INAA;;;3.29;INAA;;;;;;;1.66;INAA;;;;;;;;;;;;;4.7;INAA;;;;13;6.2;;;;;;;;;;;;;;13.6;INAA;;;;;;;;;;;;;;;;;;;;;;;;;;;;;;;;;;;;;;;;;;;;;;;;;;;;;;;;;;;;;;;;;;;;;;;;;;;;;;;;;;;;;;;;;
1999;[8110] YEMANE T. (1999);samp. 327D;;EAST AFRICAN RIFT / ETHIOPIAN RIFT / MAIN ETHIOPIAN RIFT;GAMO-GIDOLE HIGHLAND OF THE WESTERN ESCARPMENT OF THE SOUTHERN MAIN ETHIOPIAN RIFT;5.65;37.67;5.65;37.67;;;OUTCROP;;;SUBAERIAL;VOLCANIC ROCK;BENMOREITE;;;;;;;;;;;;WHOLE ROCK;;;;;;;;;;58.39;1.74;;;;19.8;;;;;;;;3.66;;;;;4.86;0.42;0.06;;;;;;3.09;XRF;;;6.64;0.96;;;;;;;;;;;;;;;;;;;;;0;;;;;;;;;;;;;;;;6;XRF;;;;44;XRF;;;0;XRF;4;XRF;8;XRF;;;19;XRF;6;XRF;7;XRF;;;230;XRF;;;23;XRF;;;;;;;61;XRF;;;;;1517;XRF;;;;;48;XRF;;;673;XRF;;;151;XRF;;;;;;;;;;;;;;;;;1439;XRF;1418;XRF;;;;;;;;;;;;;;;;;;;;;;;;;;;;;;;;;;;;;;;;;;;;;;;;;;;;;;;8;XRF;;;;;;16;XRF;;;1;XRF;;;;;;;;;;;;;;;;;;;;;;;;;;;;;;;;;;;;;;;;;;;;;;;;;;;;;;;;;;;;;;;;;;;;;;;;;;;;;;;;;;;;;
1999;[8110] YEMANE T. (1999);samp. 883;;EAST AFRICAN RIFT / ETHIOPIAN RIFT / MAIN ETHIOPIAN RIFT / MOUNT MELIGA;GUMAYDE (MOUNT MELIGA) HIGHLAND;5.5;37.7;5.5;37.7;;;OUTCROP;;;SUBAERIAL;VOLCANIC ROCK;BENMOREITE;;;;;;;;;;;;WHOLE ROCK;;;;;;;;;;56.17;0.68;;;;17.25;;;;;;;;8.74;;;;;3.39;0.63;0.26;;;;;;3.7;XRF;;;6.24;0.24;;;;;;;;;;;;;;;;;;;;;0;;;;;;;;;;;;;;;;4;XRF;;;;16;XRF;;;0;XRF;9;XRF;20;XRF;;;10;XRF;4;XRF;13;XRF;;;100;XRF;;;22;XRF;;;;;;;93;XRF;;;;;395;XRF;;;;;43;XRF;;;451;XRF;;;126;XRF;;;;;;;;;;;;;;;;;1992;XRF;2024;XRF;;;;;;;;;;;;;;;;;;;;;;;;;;;;;;;;;;;;;;;;;;;;;;;;;;;;;;;6;XRF;;;;;;16;XRF;;;3;XRF;;;;;;;;;;;;;;;;;;;;;;;;;;;;;;;;;;;;;;;;;;;;;;;;;;;;;;;;;;;;;;;;;;;;;;;;;;;;;;;;;;;;;
1991;[8117] DERUELLE B. (1991);samp. G35.80;;MID-AFRICAN RIFT SYSTEM / CAMEROON LINE (CONTINENTAL SECTION) / NORTHERN CAMEROON LINE;GOLDA ZUELVA MASSIF;14.1;11;14.1;11;;;OUTCROP;;;SUBAERIAL;VOLCANIC ROCK;BENMOREITE;;;;;;;;;;;;WHOLE ROCK;;;;;;;;;;58.49;1.03;;;;16.15;;;;;;;;9.28;;;;;3.6;0.94;0.16;;;;;;4.18;NOT;;;4.99;;;;;;;;;;;;;0.86;;;;;;;;;;;;;;;;;;;;;;;;;;;;;;;;;;;;;;;;;;;;;;;;;;;;;;;;;;;;;;;;;;;;;;;;;;;;;;;;;;;;;;;;;;;;;;;;;;;;;;;;;;;;;;;;;;;;;;;;;;;;;;;;;;;;;;;;;;;;;;;;;;;;;;;;;;;;;;;;;;;;;;;;;;;;;;;;;;;;;;;;;;;;;;;;;;;;;;;;;;;;;;;;;;;;;;;;;;;;;;;;;;;;;;;;;;;;;;;;;;;;;;;;;;;;;;;
1975;[8157] PRICE R. C. (1975);samp. OU22636;251478;NEW ZEALAND / SOUTH ISLAND / OTAGO / DUNEDIN;SMALL ROADCUT ON RIDGE CREST, S-W FLANK OF MT. CARGILL;-45.6;170.5;-45.8;170.8;;;OUTCROP;;;SUBAERIAL;VOLCANIC ROCK;BENMOREITE, NEPHELINE;;;10000000;14000000;MIOCENE;;;;;;;WHOLE ROCK;;;;;;;;;;49.03;1.28;;;;18.95;;;;;;;;;3.34;;4.94;;5.6;2.36;0.18;;;;;;3.23;XRF;;;7.7;0.59;;;1.12;0.99;0.1;;;0.16;;;0.1;;;;;;;;;;;;;;;;;;;;;;;;;;;;;;;65;XRF;;;32;XRF;;;;;;;24;XRF;;;25;XRF;;;104;XRF;;;23;XRF;;;;;;;79;XRF;;;;;1507;XRF;;;;;27;XRF;;;477;XRF;;;104;XRF;;;;;;;;;;;;;;;;;1103;XRF;;;;;;;;;;;;;;;;;;;;;;;;;;;;;;;;;;;;;;;;;;;;;;;;;;;;;;;;;9;XRF;;;;;;11;XRF;;;4;XRF;;;;;;;;;;;;;;;;;;;;;;;;;;;;;;;;;;;;;;;;;;;;;;;;;;;;;;;;;;;;;;;;;;;;;;;;;;;;;;;;;;;;;
1975;[8157] PRICE R. C. (1975);samp. OU30412;;NEW ZEALAND / SOUTH ISLAND / OTAGO / DUNEDIN;200 M WEST OF CADZOW MONUMENT;-45.6;170.5;-45.8;170.8;;;OUTCROP;;;SUBAERIAL;VOLCANIC ROCK;BENMOREITE;;;10000000;14000000;MIOCENE;;;;;;;WHOLE ROCK;;;;;;;;;;55.55;0.99;;;;18.15;;;;;;;;;3.16;;4.14;;3.91;1.31;0.19;;;;;;4.06;XRF;;;5.98;0.16;;;1.2;0.45;0.21;;;0.11;;;0.02;;;;;;;;;;;;;;;;;;;;;;;;;;;;;;;;;;;;;;;;;;;;;;;7;XRF;;;104;XRF;;;25;XRF;;;;;;;113;XRF;;;;;503;XRF;;;;;35;XRF;;;525;XRF;;;108;XRF;;;;;;;2.16;;;;;;3.12;SSMS;;;870;XRF;;;;;;;;;;;;;;;;;;;;;;;;;;;;;;;;;;;;;;;;;;;;;;;;;8.84;;;;;;;;11;XRF;;;;;;16;XRF;;;3;XRF;;;;;;;;;;;;;;;;;;;;;;;;;;;;;;;;;;;;;;;;;;;;;;;;;;;;;;;;;;;;;;;;;;;;;;;;;;;;;;;;;;;;;
1975;[8157] PRICE R. C. (1975);samp. OU30449;;NEW ZEALAND / SOUTH ISLAND / OTAGO / DUNEDIN;MT. CARGILL;-45.6;170.5;-45.8;170.8;;;OUTCROP;;;SUBAERIAL;VOLCANIC ROCK;BENMOREITE, NEPHELINE;;;10000000;14000000;MIOCENE;;;;;;;MINERAL / COMPONENT (INCL. GROUNDMASS);OLIVINE;;PHENOCRYST;CORE;PRIMARY;;;;;;;;;;;;;;;;;;;;18.45;;;;44.11;;;;;;;;;;;;;;;;;;;;;;;;;;;;;;;;;;;;;;;;;;;;;;;;;;;;;;;;;;;;;;;;;;;;;;;;;;;;;;;;;;;;;;;;;;;;;;;;;;;;;;;;;;;;;;;;;;;;;;;;;;;;;;;;;;;;;;;;;;;;;;;;;;;;;;;;;;;;;;;;;;;;;;;;;;;;;;;;;;;;;;;;;;;;;;;;;;;;;;;;;;;;;;;;;;;;;;;;;;;;;;;;;;;;;;;;;;;;;;;;;;;;;;;;;;19.01;80.99;;;;;;;;;;;;;;;;;;;;;;;;;;;;
1975;[8157] PRICE R. C. (1975);samp. OU30449;;NEW ZEALAND / SOUTH ISLAND / OTAGO / DUNEDIN;MT. CARGILL;-45.6;170.5;-45.8;170.8;;;OUTCROP;;;SUBAERIAL;VOLCANIC ROCK;BENMOREITE, NEPHELINE;;;10000000;14000000;MIOCENE;;;;;;;MINERAL / COMPONENT (INCL. GROUNDMASS);OLIVINE;;PHENOCRYST;RIM;PRIMARY;;;;;;;;;;;;;;;;;;;;28.53;;;;37.81;;;;;;;;;;;;;;;;;;;;;;;;;;;;;;;;;;;;;;;;;;;;;;;;;;;;;;;;;;;;;;;;;;;;;;;;;;;;;;;;;;;;;;;;;;;;;;;;;;;;;;;;;;;;;;;;;;;;;;;;;;;;;;;;;;;;;;;;;;;;;;;;;;;;;;;;;;;;;;;;;;;;;;;;;;;;;;;;;;;;;;;;;;;;;;;;;;;;;;;;;;;;;;;;;;;;;;;;;;;;;;;;;;;;;;;;;;;;;;;;;;;;;;;;;;29.74;70.26;;;;;;;;;;;;;;;;;;;;;;;;;;;;
1975;[8157] PRICE R. C. (1975);samp. OU30449;;NEW ZEALAND / SOUTH ISLAND / OTAGO / DUNEDIN;MT. CARGILL;-45.6;170.5;-45.8;170.8;;;OUTCROP;;;SUBAERIAL;VOLCANIC ROCK;BENMOREITE, NEPHELINE;;;10000000;14000000;MIOCENE;;;;;;;WHOLE ROCK;;;;;;;;;;;;;;;;;;;;;;;;;;;;;;;;;;;;;;;;;;;;;;;;;;;;;;;;;;;;;;;;;;;;;;;;;;;;;;;;;;;;;;;;;;;;;;;;;;;;;;;;;;;;;;;;;;;;;;;;;;;;;;;;;;;;;;;;;;;;;;;2.43;;;;;;2.44;SSMS;;;;;;;;;;;;;;;;;;;;;;;;;;;;;;;;;;;;;;;;;;;;;;;;;;;;;8.98;;;;;;;;;;;;;;;;;;;;;;;;;;;;;;;;;;;;;;;;;;;;;;;;;;;;;;;;;;;;;;;;;;;;;;;;;;;;;;;;;;;;;;;;;;;;;;;;;;;;;;;;;
1994;[8173] WEDEPOHL K. H.(1994)  [GeoReM [1217] ];samp. 2606;;EUROPEAN OROGENIC BELT - CENOZOIC/QUATERNARY / GERMANY / UPPER RHINEGRABEN / HEGAU;STAUFFEN;47.75;8.22;47.75;8.22;;;OUTCROP;;;SUBAERIAL;VOLCANIC ROCK;BENMOREITE;;;7000000;9500000;MIOCENE;;;;;;;WHOLE ROCK;;;;;;;;;;;;;;;;;;;;;;;;;;;;;;;;;;;;;;;;;;;;;;;;;;;;;;;;;;;;;;;;;;;;;;;;;;;;;;;;;;;;;;;;;;;;;;;;;;;;;;;;;;;;;;;;;;;201;TIMS_ID;;;;;1040;TIMS_ID;;;;;;;;;;;;;;;;;;;;;;;;;;;;;;;;;;;;;;;;;;;;47;TIMS_ID;;;;;7.4;TIMS_ID;;;;;;;;;;;;;;;;;;;;;;;;;;;;;;;;;;;;;;;;;;;;;;;;;;;;;0.512781;;;;;0.70436;;;;;;;;;;;;;;;;;;;;;;;;;;;;;;;;;;;;;;;;;;;;;;;;;;;;;;;;;;;;;;;;;;;;;;;;;;;;;
1994;[8173] WEDEPOHL K. H.(1994)  [GeoReM [1217] ];samp. 2606;;EUROPEAN OROGENIC BELT - CENOZOIC/QUATERNARY / GERMANY / UPPER RHINEGRABEN / HEGAU;STAUFFEN;47.75;8.22;47.75;8.22;;;OUTCROP;;;SUBAERIAL;VOLCANIC ROCK;BENMOREITE;;;7000000;9500000;MIOCENE;;;;;;;WHOLE ROCK;;;;;;;;;;;;;;;;;;;;;;;;;;;;;;;;;;;;;;;;;;;;;;;;;;;;;;;;;;;;;;;;;;;;;;;;;;;;;;;;;;;;;;;;;;;;;;;;;;;;;;;;;;;;;;;;;;;;;;;;;;;;;;;;;;;;;;;;;;;;;;;;;;;;;;;;;;;;;;;;;;;;;;;;;;;;;;;;;;;;;;;;;;;;;;;;;;;;;;;;;;;;;;;;;;;;;;;;;;;;;;;;;;;;;;;0.70429;;;;;;;;;;;;;;;;;;;;;;;;;;;;;;;;;;;;;;;;;;;;;;;;;;;;;;;;;;;;;;;;;;;;;;;;;;;;;
1994;[8173] WEDEPOHL K. H.(1994)  [GeoReM [1217] ];samp. 26A;150346;EUROPEAN OROGENIC BELT - CENOZOIC/QUATERNARY / GERMANY / SIEBENGEBIRGE;LWENBURG;50.6651;7.2519;50.6651;7.2519;;;OUTCROP;;;SUBAERIAL;VOLCANIC ROCK;BENMOREITE;;;25000000;27000000;OLIGOCENE;;;;;;;WHOLE ROCK;;;;;;;;;;;;;;;;;;;;;;;;;;;;;;;;;;;;;;;;;;;;;;;;;;;;;;;;;;;;;;;;;;;;;;;;;;;;;;;;;;;;;;;;;;;;;;;;;;;;;;;;;;;;;;;;;;;123;TIMS_ID;;;;;1070;TIMS_ID;;;;;;;;;;;;;;;;;;;;;;;;;;;;;;;;;;;;;;;;;;;;54;TIMS_ID;;;;;8.7;TIMS_ID;;;;;;;;;;;;;;;;;;;;;;;;;;;;;;;;;;;;;;;;;;;;;;;;;;;;;0.512761;;;;;0.70438;;;;;;;;;;;;;;;;;;;;;;;;;;;;;;;;;;;;;;;;;;;;;;;;;;;;;;;;;;;;;;;;;;;;;;;;;;;;;
1994;[8173] WEDEPOHL K. H.(1994)  [GeoReM [1217] ];samp. 2615;142036;EUROPEAN OROGENIC BELT - CENOZOIC/QUATERNARY / GERMANY / EIFEL;BOCKSBERG;50.4;6.8;50.4;6.8;;;OUTCROP;;;SUBAERIAL;VOLCANIC ROCK;BENMOREITE;;;35000000;40000000;EOCENE;;;;;;;WHOLE ROCK;;;;;;;;;;;;;;;;;;;;;;;;;;;;;;;;;;;;;;;;;;;;;;;;;;;;;;;;;;;;;;;;;;;;;;;;;;;;;;;;;;;;;;;;;;;;;;;;;;;;;;;;;;;;;;;;;;;113;TIMS_ID;;;;;781;TIMS_ID;;;;;;;;;;;;;;;;;;;;;;;;;;;;;;;;;;;;;;;;;;;;57;TIMS_ID;;;;;9.6;TIMS_ID;;;;;;;;;;;;;;;;;;;;;;;;;;;;;;;;;;;;;;;;;;;;;;;;;;;;;0.512713;;;;;0.70449;;;;;;;;;;;;;;;;;;;;;;;;;;;;;;;;;;;;;;;;;;;;;;;;;;;;;;;;;;;;;;;;;;;;;;;;;;;;;
1989;[8188] PASTEELS P. (1989);samp. BX;;EAST AFRICAN RIFT / WESTERN EAST AFRICAN RIFT (TANGANYIKA RIFT) / SOUTH KIVU LAKE PROVINCE / BUKAVU-BUGARAMA VOLANIC FIELD;RUSIZI, RWANDA/DR CONGO/BURUNDI;-2.5;28.9;-2.5;28.9;;;OUTCROP;;;SUBAERIAL;VOLCANIC ROCK;BENMOREITE;PHENOCRYSTS IN A TRACHYTIC-TEXTURED MATRIX;;0;10000000;NEOGENE-QUATERNARY;;;;;;AMPHIBOLE REPLACED BY GRANULAR ORE AND CLINOPYROXENE;WHOLE ROCK;;;;;;;;;;56.78;1.26;;;;18.67;;;;;;;;;4.64;;0.81;;3.14;1.18;0.19;;;;;;4.07;NOT;;;5.41;0.6;;2.68;;;;;;;;;;;;;3.18;;;;;;;;;;;;7.6E-07;MS;;;;;;;;;;;;;;;;;;;;;;;;;;;;;;;;;;;;;;;;;;;;;;;;;;;;;;;;;;;;;;;;;;;;;;;;;;;;;;;;;;;;;;;;;;;;;;;;;;;;;;;;;;;;;;;;;;;;;;;;;;;;;;;;;;;;;;;;;;;;;;;;;;;;;;;;;;;;;;;;;;;;;;;;;;;;;;;;;;;;;;;;;;;;;;;;;;;;;;;;;;;;;;;;;;;;;;;;;;;;;;;;;;;;;;;6.14;K-AR;;;;;;;
1989;[8367] CAMP V. E. (1989);samp. RAHAT5;;ARABIAN-NUBIAN SHIELD / SAUDI ARABIA / HARRAT RAHAT / RAHAT BASALT;;23.08;39.78;23.08;39.78;;;OUTCROP;;;SUBAERIAL;VOLCANIC ROCK;BENMOREITE;;;;;CENOZOIC;;;;;;;WHOLE ROCK;;;;;;;;;;56.61;0.96;;;;17.14;;;;;;;;;;9.78;;;4.2;1.19;0.28;;;;;;3.04;XRF;;;6.23;0.57;;;;;;;;;;;;;;;;;;;;;;;;;;;;;;;;;;;;;15.4;ICPMS;;;;15;ICPMS;;;0.4;XRF;;;;;;;3.3;XRF;;;23.1;XRF;;;133;XRF;;;27.1;XRF;;;;;;;26.8;XRF;;;;;535.3;XRF;;;;;53;XRF;;;668.5;XRF;;;67.5;XRF;;;;;;;;;;;;;;;;;564.5;XRF;;;62.4;ICPMS;;;125.4;ICPMS;;;;;;;;;;;;;;;;;;;;;;;;;;;;;;;;;;;;;;;;;;;;;;;;;;;;;;;;;;;;;;;;;;;;;;;;;;;;;;;;;;;;;;;;;;;;;;;;;;;;;;;;;;;;;;;;;;;;;;;;;;;;;;;;;;;;;;;;;;;;;;;;;;
1991;[8368] CAMP V. E. (1991);samp. 16;;ARABIAN-NUBIAN SHIELD / SAUDI ARABIA / HARRAT KHAYBAR/HARRAT ITHNAYN;;25;39;26.5;39.78;;;OUTCROP;;;SUBAERIAL;VOLCANIC ROCK;BENMOREITE;;;;;;;;;;;;WHOLE ROCK;;;;;;;;;;58.02;0.78;;;;17.6;;;;;;;;;;7.72;;;3.87;1;0.2;;;;;;3.44;ICPMS;;;7.2;0.39;;;;;;;;;;;;;;;;15;;;;;;;;;;;;;;;;;;;;;9.7;ICPMS;;;;3;ICPMS;;;5.7;ICPMS;;;16;K-AR;;;6.3;ICPMS;;;21.3;ICPMS;;;111.3;ICPMS;;;25;ICPMS;;;;;;;39.3;ICPMS;;;;;300.3;ICPMS;;;;;39.7;ICPMS;;;544;ICPMS;;;70.7;ICPMS;;;;5.7;;;;;;;;;;;;;747.3;ICPMS;;;57.7;K-AR;;;106.3;K-AR;;;;;;;;;;;;;;;;;;;;;;;;;;;;;;;;;;;;;;;;;;;;;;;;;;;;;;;;;;;;;;;;;;;;;;;;;;;;;;;;;;;;;;;;;;;;;;;;;;;;;;;;;;;;;;;;;;;;;;;;;;;;;;;;;;;;;;;;;;;;;;;;;;
2005;[8489] LEGENDRE C.(2005)  [GeoReM [1177] ];samp. UP21;;MARQUESAS / UA POU;EAST COAST OF UA POU BETWEEN HAKAHETAU AND HIKEU;-9.42;-140;-9.42;-140;;;OUTCROP;;;SUBAERIAL;VOLCANIC ROCK;BENMOREITE;PORPHYRITIC;LAHARIC BRECCIA;;;;;;;;;;WHOLE ROCK;;;;;;;;;;57;1.01;;;;18.85;;;;;;;;4.6;;;;;2.95;0.92;0.18;;;;;;4.72;ICPAES;;;5.2;0.19;;;;;;;;;;;;4;;;;;;;;;;;;;;;;;;;;;;;;;0.6;ICPAES;;;;22;ICPAES;;;2.5;ICPAES;;;3;ICPAES;;;1;ICPAES;;;;;;;;;;;;;;;;;;;104;ICPAES;;;;;995;ICPAES;;;;;34.5;ICPAES;;;690;ICPAES;;;141;ICPAES;;;;;;;;;;;;;;;;;1190;ICPAES;;;122;ICPAES;;;218;ICPAES;;;;72;ICPAES;;;;;11.1;ICPAES;;;3;ICPAES;;;7.9;ICPAES;;;;;;;6.1;ICPAES;;;;3;ICPAES;;;;2.82;ICPAES;;;;;;;;;;;;;;;;;;;22.5;ICPAES;;;;;;;;;;;;;;;;;;;;;;;;;;;;;;;;;;;;;;;;;;;;;;;;;;;;;;;;;;;;;;;;;;;;;;;;;;;;;;;;;;;;;;;;;