Year;CITATION;SAMPLE NAME;UNIQUE_ID;LOCATION;LOCATION COMMENT;LATITUDE (MIN.);LONGITUDE (MIN.);LATITUDE (MAX.);LONGITUDE (MAX.);ELEVATION (MIN.);ELEVATION (MAX.);SAMPLING TECHNIQUE;DRILLING DEPTH (MIN.);DRILLING DEPTH (MAX.);LAND/SEA (SAMPLING);ROCK TYPE;ROCK NAME;ROCK TEXTURE;SAMPLE COMMENT;AGE (MIN.);AGE (MAX.);GEOLOGICAL AGE;GEOLOGICAL AGE PREFIX;ERUPTION DAY;ERUPTION MONTH;ERUPTION YEAR;ALTERATION;ALTERATION TYPE;TYPE OF MATERIAL;MINERAL / COMPONENT;SPOT (MINERAL);CRYSTAL;RIM / CORE (MINERAL GRAINS);PRIMARY/SECONDARY;INCLUSION TYPE;MINERAL (INCLUSION);HOSTMINERAL (INCLUSION);HEATING;SIO2(WT%);TIO2(WT%);ZRO2(WT%);HFO2(WT%);THO2(WT%);AL2O3(WT%);CR2O3(WT%);LA2O3(WT%);CE2O3(WT%);ND2O3(WT%);SM2O3(WT%);V2O3(WT%);NB2O5(WT%);FE2O3T(WT%);FE2O3(WT%);FEOT(WT%);FEO(WT%);FET(WT%);CAO(WT%);MGO(WT%);MNO(WT%);BAO(WT%);SRO(WT%);NIO(WT%);ZNO(WT%);RB2O(WT%);K2O(WT%);;;;NA2O(WT%);P2O5(WT%);AS2O5(WT%);H2O(WT%);H2OP(WT%);H2OM(WT%);CO2(WT%);C(WT%);F(WT%);CL(WT%);OH(WT%);SO3(WT%);S(WT%);LOI(WT%);TI(WT%);CA(WT%);K(WT%);LI(PPM);BE(PPM);B(PPM);F(PPM);P(PPM);S(PPM);CL(PPM);AR40(AT/G);;;;AR40(CCMSTP/G);;;;AR40(MOL/G);;;;AR40(PPB);K(PPM);SC(PPM);;;;TI(PPM);V(PPM);;;;CR(PPM);;;;CO(PPM);;;;NI(PPM);;;;CU(PPM);;;;ZN(PPM);;;;GA(PPM);;;;GE(PPM);AS(PPM);AS(PPB);SE(PPM);RB(PPM);;;;;;SR(PPM);;;;;;Y(PPM);;;;ZR(PPM);;;;NB(PPM);;;;MO(PPM);AG(PPM);CD(PPM);IN(PPM);SN(PPM);SB(PPM): altern. values or methods;;;;TE(PPM);CS(PPM): altern. values or methods;;;;BA(PPM): altern. values or methods;;;;LA(PPM): altern. values or methods;;;;CE(PPM): altern. values or methods;;;;PR(PPM);ND(PPM): altern. values or methods;;;;;;SM(PPM): altern. values or methods;;;;EU(PPM): altern. values or methods;;;;GD(PPM): altern. values or methods;;;;TB(PPM): altern. values or methods;;;;DY(PPM): altern. values or methods;;;;HO(PPM);ER(PPM): altern. values or methods;;;;TM(PPM);YB(PPM): altern. values or methods;;;;LU(PPM);HF(PPM);TA(PPM);W(PPM);RE(PPM);AU(PPM);HG(PPM);HG(PPB);TL(PPM);PB(PPM): altern. values or methods;;;;BI(PPM);PO210_ACT(DPM/G);RA226_ACT(DPM/G);TH(PPM): altern. values or methods;;;;U(PPM): altern. values or methods;;;;ND143_ND144;ND143_ND144_INI;EPSILON_ND;EPSILON_ND_INI;SM147_ND144;SR87_SR86;SR87_SR86_INI;EPSILON_SR_INI;RB87_SR86;PB206_PB204: altern. values or methods;;;;PB206_PB204_INI;PB207_PB204: altern. values or methods;;;;PB207_PB204_INI;PB207_PB206;PB208_PB204: altern. values or methods;;;;PB208_PB204_INI;PB208_PB206;HF176_HF177;LU176_HF177;AR38_AR36;AR40_AR36;AR40_AR36_INI;PB206_U238;PB207_U235;RA226_TH230_ACT;PA231_U235_ACT;TH230_TH232_ACT;TH230_U238_ACT;TH232_PB204;U234_U238_ACT;U235_PB204;U238_PB204;U238_TH232_ACT;D7LI(VS LSVEC);D13C(VS PDB);D18O(PER MIL);D18O(VS SMOW);D18O(VS VSMOW);D34S(VS VCDT);ALBITE(MOL%);ANORTHITE(MOL%);CA OLIVINE(MOL%);CHROMITE(MOL%);ENSTATITE(MOL%);FAYALITE(MOL%);FORSTERITE(MOL%);FERROSILITE(MOL%);HEMATITE(MOL%);HERCYNITE(MOL%);ILMENITE(MOL%);MAGNESIOFERRITE(MOL%);MONTICELLITE(MOL%);MAGNETITE(MOL%);ORTHOCLASE(MOL%);PICROCHROMITE(MOL%);SPINEL(MOL%);TEPHROITE(MOL%);ULVOSPINEL(MOL%);WOLLASTONITE(MOL%);AGE(KA): altern. values or methods;;;;;;AGE(MA): altern. values or methods;;;;;;AGE_PB207_U235(MA);AGE_PB206_U238(MA);
1985;[9323] DE MULDER M. (1985);samp. 401;;EAST AFRICAN RIFT / WESTERN EAST AFRICAN RIFT (TANGANYIKA RIFT) / VIRUNGA PROVINCE / KARISIMBI;EXTREME EAST OF KARISIMBIFIELD, RWANDA;-1.52;29.43;-1.52;29.43;;;OUTCROP;;;SUBAERIAL;VOLCANIC ROCK;BENMOREITE;;;;;;;;;;;;MINERAL / COMPONENT (INCL. GROUNDMASS);CLINOPYROXENE;;;;PRIMARY;;;;;50.01;1.22;;;;3.29;0.02;;;;;;;;;8.37;;;22.18;14.1;0.34;;;;;;0;EMP (EPMA);;;0.4;;;;;;;;;;;;;;;;;;;;;;;;;;;;;;;;;;;;;;;;;;;;;;;;;;;;;;;;;;;;;;;;;;;;;;;;;;;;;;;;;;;;;;;;;;;;;;;;;;;;;;;;;;;;;;;;;;;;;;;;;;;;;;;;;;;;;;;;;;;;;;;;;;;;;;;;;;;;;;;;;;;;;;;;;;;;;;;;;;;;;;;;;;;;;;;;;;;;;;;;;;;;;;;;;;;;;;;;;;;;;;;;;;;;;;;;;;;;;;;;;;;;;;;;;;;;;;;;;;;;;;;;;;;;
1985;[9323] DE MULDER M. (1985);samp. 401;;EAST AFRICAN RIFT / WESTERN EAST AFRICAN RIFT (TANGANYIKA RIFT) / VIRUNGA PROVINCE / KARISIMBI;EXTREME EAST OF KARISIMBIFIELD, RWANDA;-1.52;29.43;-1.52;29.43;;;OUTCROP;;;SUBAERIAL;VOLCANIC ROCK;BENMOREITE;;;;;;;;;;;;MINERAL / COMPONENT (INCL. GROUNDMASS);CLINOPYROXENE;;;;PRIMARY;;;;;49.17;1.53;;;;3.93;0.02;;;;;;;;;7.65;;;22.1;14.16;0.29;;;;;;0;EMP (EPMA);;;0.29;;;;;;;;;;;;;;;;;;;;;;;;;;;;;;;;;;;;;;;;;;;;;;;;;;;;;;;;;;;;;;;;;;;;;;;;;;;;;;;;;;;;;;;;;;;;;;;;;;;;;;;;;;;;;;;;;;;;;;;;;;;;;;;;;;;;;;;;;;;;;;;;;;;;;;;;;;;;;;;;;;;;;;;;;;;;;;;;;;;;;;;;;;;;;;;;;;;;;;;;;;;;;;;;;;;;;;;;;;;;;;;;;;;;;;;;;;;;;;;;;;;;;;;;;;;;;;;;;;;;;;;;;;;;
1985;[9323] DE MULDER M. (1985);samp. 401;;EAST AFRICAN RIFT / WESTERN EAST AFRICAN RIFT (TANGANYIKA RIFT) / VIRUNGA PROVINCE / KARISIMBI;EXTREME EAST OF KARISIMBIFIELD, RWANDA;-1.52;29.43;-1.52;29.43;;;OUTCROP;;;SUBAERIAL;VOLCANIC ROCK;BENMOREITE;;;;;;;;;;;;MINERAL / COMPONENT (INCL. GROUNDMASS);CLINOPYROXENE;;;;PRIMARY;;;;;48.64;1.61;;;;4.32;0.05;;;;;;;;;9.36;;;21.81;13.06;0.44;;;;;;0.04;EMP (EPMA);;;0.45;;;;;;;;;;;;;;;;;;;;;;;;;;;;;;;;;;;;;;;;;;;;;;;;;;;;;;;;;;;;;;;;;;;;;;;;;;;;;;;;;;;;;;;;;;;;;;;;;;;;;;;;;;;;;;;;;;;;;;;;;;;;;;;;;;;;;;;;;;;;;;;;;;;;;;;;;;;;;;;;;;;;;;;;;;;;;;;;;;;;;;;;;;;;;;;;;;;;;;;;;;;;;;;;;;;;;;;;;;;;;;;;;;;;;;;;;;;;;;;;;;;;;;;;;;;;;;;;;;;;;;;;;;;;
1985;[9323] DE MULDER M. (1985);samp. 401;;EAST AFRICAN RIFT / WESTERN EAST AFRICAN RIFT (TANGANYIKA RIFT) / VIRUNGA PROVINCE / KARISIMBI;EXTREME EAST OF KARISIMBIFIELD, RWANDA;-1.52;29.43;-1.52;29.43;;;OUTCROP;;;SUBAERIAL;VOLCANIC ROCK;BENMOREITE;;;;;;;;;;;;MINERAL / COMPONENT (INCL. GROUNDMASS);PLAGIOCLASE;;;;PRIMARY;;;;;48.1;0.09;;;;33.01;0.02;;;;;;;;;0.49;;;15.42;0;0.03;;;;;;0.28;EMP (EPMA);;;2.42;;;;;;;;;;;;;;;;;;;;;;;;;;;;;;;;;;;;;;;;;;;;;;;;;;;;;;;;;;;;;;;;;;;;;;;;;;;;;;;;;;;;;;;;;;;;;;;;;;;;;;;;;;;;;;;;;;;;;;;;;;;;;;;;;;;;;;;;;;;;;;;;;;;;;;;;;;;;;;;;;;;;;;;;;;;;;;;;;;;;;;;;;;;;;;;;;;;;;;;;;;;;;;;;;;;;;;;;;;;;;;;;;;;;;;;;;;22;76;;;;;;;;;;;;;2;;;;;;;;;;;;;;;;;;;;
1985;[9323] DE MULDER M. (1985);samp. 401;;EAST AFRICAN RIFT / WESTERN EAST AFRICAN RIFT (TANGANYIKA RIFT) / VIRUNGA PROVINCE / KARISIMBI;EXTREME EAST OF KARISIMBIFIELD, RWANDA;-1.52;29.43;-1.52;29.43;;;OUTCROP;;;SUBAERIAL;VOLCANIC ROCK;BENMOREITE;;;;;;;;;;;;MINERAL / COMPONENT (INCL. GROUNDMASS);SANIDINE;;;;PRIMARY;;;;;62.66;0.26;;;;20.65;0;;;;;;;;;0.39;;;1.8;0;0.05;;;;;;7.68;EMP (EPMA);;;5.44;;;;;;;;;;;;;;;;;;;;;;;;;;;;;;;;;;;;;;;;;;;;;;;;;;;;;;;;;;;;;;;;;;;;;;;;;;;;;;;;;;;;;;;;;;;;;;;;;;;;;;;;;;;;;;;;;;;;;;;;;;;;;;;;;;;;;;;;;;;;;;;;;;;;;;;;;;;;;;;;;;;;;;;;;;;;;;;;;;;;;;;;;;;;;;;;;;;;;;;;;;;;;;;;;;;;;;;;;;;;;;;;;;;;;;;;;;47;9;;;;;;;;;;;;;44;;;;;;;;;;;;;;;;;;;;
1985;[9323] DE MULDER M. (1985);samp. 401;;EAST AFRICAN RIFT / WESTERN EAST AFRICAN RIFT (TANGANYIKA RIFT) / VIRUNGA PROVINCE / KARISIMBI;EXTREME EAST OF KARISIMBIFIELD, RWANDA;-1.52;29.43;-1.52;29.43;;;OUTCROP;;;SUBAERIAL;VOLCANIC ROCK;BENMOREITE;;;;;;;;;;;;MINERAL / COMPONENT (INCL. GROUNDMASS);SPINEL;;;;PRIMARY;;;;;0.09;24.81;;;;2.46;0;;;;;;;;20.16;;50.67;;0.09;2.05;1.09;;;;;;0.03;EMP (EPMA);;;;;;;;;;;;;;;;;;;;;;;;;;;;;;;;;;;;;;;;;;;;;;;;;;;;;;;;;;;;;;;;;;;;;;;;;;;;;;;;;;;;;;;;;;;;;;;;;;;;;;;;;;;;;;;;;;;;;;;;;;;;;;;;;;;;;;;;;;;;;;;;;;;;;;;;;;;;;;;;;;;;;;;;;;;;;;;;;;;;;;;;;;;;;;;;;;;;;;;;;;;;;;;;;;;;;;;;;;;;;;;;;;;;;;;;;;;;;;;;;;;;;;;;;;32.6;;;;;67.4;;;;;;;;;;;;;;;;
1985;[9323] DE MULDER M. (1985);samp. 401;;EAST AFRICAN RIFT / WESTERN EAST AFRICAN RIFT (TANGANYIKA RIFT) / VIRUNGA PROVINCE / KARISIMBI;EXTREME EAST OF KARISIMBIFIELD, RWANDA;-1.52;29.43;-1.52;29.43;;;OUTCROP;;;SUBAERIAL;VOLCANIC ROCK;BENMOREITE;;;;;;;;;;;;MINERAL / COMPONENT (INCL. GROUNDMASS);BIOTITE;;;;PRIMARY;;;;;35.38;9.37;;;;15.02;0;;;;;;;;;12.69;;;0;13.85;0.17;;;;;;8.94;EMP (EPMA);;;0.66;;;;;;;;;;4.06;;;;;;;;;;;;;;;;;;;;;;;;;;;;;;;;;;;;;;;;;;;;;;;;;;;;;;;;;;;;;;;;;;;;;;;;;;;;;;;;;;;;;;;;;;;;;;;;;;;;;;;;;;;;;;;;;;;;;;;;;;;;;;;;;;;;;;;;;;;;;;;;;;;;;;;;;;;;;;;;;;;;;;;;;;;;;;;;;;;;;;;;;;;;;;;;;;;;;;;;;;;;;;;;;;;;;;;;;;;;;;;;;;;;;;;;;;;;;;;;;;;;;;;;;;;;;;;;;;
2006;[9550] JUNG C. (2006);samp. HEJ 29;;EUROPEAN OROGENIC BELT - CENOZOIC/QUATERNARY / GERMANY / EIFEL;HOCHKEHLBERG;50.2792;6.9422;50.2792;6.9422;;;OUTCROP;;;SUBAERIAL;VOLCANIC ROCK;BENMOREITE;FINE-GRAINED;ABUNDANT PLAGIOCLASEIOCLASE;;;CENOZOIC;;;;;;;WHOLE ROCK;;;;;;;;;;55.49;1.43;;;;17.44;;;;;;;;;3.65;;3.23;;5.72;2.33;0.16;;;;;;3.24;XRF;;;4.71;0.49;;;;;;;;;;;;2.58;;;;;;;;;;;;;;;;;;;;;;;;;5;XRF;;;;130;XRF;;;38;XRF;;;19;XRF;;;17;XRF;;;8;XRF;;;92;XRF;;;29;XRF;;;;;;;119;XRF;;;;;741;XRF;;;;;28;XRF;;;424;XRF;;;88;XRF;;;;;;;;;;;;;;;;;837;XRF;;;71.5;ICPAES;;;129.1;ICPAES;;;;54.8;ICPAES;;;;;11.5;ICPAES;;;2.34;ICPAES;;;7.28;ICPAES;;;;;;;5.78;ICPAES;;;;2.96;ICPAES;;;;2.52;ICPAES;;;0.35;;;;;;;;;;;;;;;;;;;;;;;;0.512606;;;;;0.704785;;;;19.29;TIMS;;;;15.67;TIMS;;;;;39.12;TIMS;;;;;;;;;;;;;;;;;;;;;;;;;;;;;;;;;;;;;;;;;;;;;;;;;;;;;;;;;;;;;
2006;[9550] JUNG C. (2006);samp. HEJ 11;;EUROPEAN OROGENIC BELT - CENOZOIC/QUATERNARY / GERMANY / EIFEL;NEICHER BERG;50.2772;6.8988;50.2772;6.8988;;;OUTCROP;;;SUBAERIAL;VOLCANIC ROCK;BENMOREITE;FINE-GRAINED;RARE CLINOPYROXENE AND ALTERED AMPHIBOLE;;;CENOZOIC;;;;;;;WHOLE ROCK;;;;;;;;;;56.38;1.59;;;;18.14;;;;;;;;;5.74;;1.07;;4.34;0.73;0.09;;;;;;3.37;XRF;;;4.95;0.62;;;;;;;;;;;;1.67;;;;;;;;;;;;;;;;;;;;;;;;;5;XRF;;;;142;XRF;;;21;XRF;;;13;XRF;;;12;XRF;;;11;XRF;;;129;XRF;;;24;XRF;;;;;;;126;XRF;;;;;779;XRF;;;;;30;XRF;;;461;XRF;;;97;XRF;;;;;;;;;;;;;;;;;743;XRF;;;84.9;ICPAES;;;155.7;ICPAES;;;;57;ICPAES;;;;;10.8;ICPAES;;;2.6;ICPAES;;;8.55;ICPAES;;;;;;;5.62;ICPAES;;;;2.95;ICPAES;;;;2.71;ICPAES;;;0.37;;;;;;;;;;;;;;;;;;;;;;;;0.512727;;;;;0.704538;;;;19.4;TIMS;;;;15.62;TIMS;;;;;39.26;TIMS;;;;;;;;;;;;;;;;;;;;;;;;;;;;;;;;;;;;;;;;;;;;;;;;;;;;;;;;;;;;;
1979;[9740] COOPER A. F. (1979);samp. OU22636;251478;NEW ZEALAND / SOUTH ISLAND / OTAGO / DUNEDIN;SMALL ROADCUT ON RIDGE CREST, S-W FLANK OF MT. CARGILL;-45.6;170.5;-45.8;170.8;;;OUTCROP;;;SUBAERIAL;VOLCANIC ROCK;BENMOREITE, NEPHELINE;;;;;;;;;;;;WHOLE ROCK;;;;;;;;;;49.03;1.28;;;;18.59;;;;;;;;;3.34;;4.94;;5.6;2.36;0.18;;;;;;3.23;NOT;;;7.7;0.59;;;1.12;0.99;0.1;;;0.16;;;0.1;;;;;;;;;;;;;;;;;;;;;;;;;;;;;;;;;;;;;;;;;;;;;;;;;;;;;;;;;;;;;;;79;NOT;;;;;1507;NOT;;;;;;;;;477;NOT;;;;;;;;;;;;;;;;;;;;;1103;NOT;;;;;;;;;;;;;;;;;;;;;;;;;;;;;;;;;;;;;;;;;;;;;;;;;;;;;;;;;;;;;;;;;;;;;;;;;;;;;;;;;;;;;;;;;;;;;;;;;;;;;;;;;;;;;;;;;;;;;;;;;;;;;;;;;;;;;;;;;;;;;;;;;;;;;;;;;;
1979;[9740] COOPER A. F. (1979);samp. OU30445;;NEW ZEALAND / SOUTH ISLAND / OTAGO;HAAST SHIST TERRANE, SOUTH OF HAAST RIVER AREA;-43.8;169;-43.8;169;;;OUTCROP;;;SUBAERIAL;VOLCANIC ROCK;BENMOREITE, NEPHELINE;;;;;;;;;;;;WHOLE ROCK;;;;;;;;;;51.5;0.88;;;;19.39;;;;;;;;;3.03;;3.94;;3.55;1.62;0.18;;;;;;4.04;NOT;;;8.65;0.21;;;2.24;0.54;0.18;;;0.33;;;0.06;;;;;;;;;;;;;;;;;;;;;;;;;;;;;;;;;;;;;;;;;;;;;;;;;;;;;;;;;;;;;;;126;NOT;;;;;645;NOT;;;;;;;;;636;NOT;;;;;;;;;;;;;;;;;;;;;594;NOT;;;;;;;;;;;;;;;;;;;;;;;;;;;;;;;;;;;;;;;;;;;;;;;;;;;;;;;;;;;;;;;;;;;;;;;;;;;;;;;;;;;;;;;;;;;;;;;;;;;;;;;;;;;;;;;;;;;;;;;;;;;;;;;;;;;;;;;;;;;;;;;;;;;;;;;;;;
1980;[9826] BAUBRON J. C. (1980);samp. JCB 511;;ARABIAN-NUBIAN SHIELD / SAUDI ARABIA / HARRAT KHAYBAR / JABAL AL ABYAD VOLCANIC CHAIN;;25.67;39.83;25.67;39.83;;;OUTCROP;;;SUBAERIAL;VOLCANIC ROCK;BENMOREITE;;;;;NEOGENE;;;;;;;WHOLE ROCK;;;;;;;;;;59.95;1.12;;;;17;;;;;;;;;0.82;;6.75;;2.5;1.01;0.28;;;;;;2.61;NOT;;;6.15;0.8;;;;;;;;;;;;0.8;;;;;;;;;;;;;;;;;;;;;;;;;;;;;;;;;;;;;;;;;;;;;;;;;;;;;;;;;;;;;;32;NOT;;;;;367;NOT;;;;;;;;;;;;;;;;;;;;;;;;;;;;;;;;;;;;;;;;;;;;;;;;;;;;;;;;;;;;;;;;;;;;;;;;;;;;;;;;;;;;;;;;;;;;;;;;;;;;;;;;;;;;;0.70318;;;;;;;;;;;;;;;;;;;;;;;;;;;;;;;;;;;;;;;;;;;;;;;;;;;;;;;;;;;;;;;;;;;;;;;;;;;;;
1980;[9826] BAUBRON J. C. (1980);samp. BM;;ARABIAN-NUBIAN SHIELD / SAUDI ARABIA / HARRAT KHAYBAR / JABAL AL ABYAD VOLCANIC CHAIN;;25.67;39.83;25.67;39.83;;;OUTCROP;;;SUBAERIAL;VOLCANIC ROCK;BENMOREITE;;;;;NEOGENE;;;;;;;MINERAL / COMPONENT (INCL. GROUNDMASS);PYROXENE;;GROUNDMASS;;PRIMARY;;;;;50.65;0.81;;;;1.29;0.04;;;;;;;;;16.29;;;21.23;7.74;0.54;;;;;;0.05;EMP (EPMA);;;0.81;;;;;;;;;;;;;;;;;;;;;;;;;;;;;;;;;;;;;;;;;;;;;;;;;;;;;;;;;;;;;;;;;;;;;;;;;;;;;;;;;;;;;;;;;;;;;;;;;;;;;;;;;;;;;;;;;;;;;;;;;;;;;;;;;;;;;;;;;;;;;;;;;;;;;;;;;;;;;;;;;;;;;;;;;;;;;;;;;;;;;;;;;;;;;;;;;;;;;;;;;;;;;;;;;;;;;;;;;;;;;;;;;;;;;;;;;;;;;;;;;;;;;;;;;;;;;;;;;;;;;;;;;;;;
1980;[9826] BAUBRON J. C. (1980);samp. BM;;ARABIAN-NUBIAN SHIELD / SAUDI ARABIA / HARRAT KHAYBAR / JABAL AL ABYAD VOLCANIC CHAIN;;25.67;39.83;25.67;39.83;;;OUTCROP;;;SUBAERIAL;VOLCANIC ROCK;BENMOREITE;;;;;NEOGENE;;;;;;;MINERAL / COMPONENT (INCL. GROUNDMASS);PYROXENE;;GROUNDMASS;;PRIMARY;;;;;49.75;1.05;;;;0.78;0;;;;;;;;;25.82;;;14.94;1.2;0.59;;;;;;0;EMP (EPMA);;;4.11;;;;;;;;;;;;;;;;;;;;;;;;;;;;;;;;;;;;;;;;;;;;;;;;;;;;;;;;;;;;;;;;;;;;;;;;;;;;;;;;;;;;;;;;;;;;;;;;;;;;;;;;;;;;;;;;;;;;;;;;;;;;;;;;;;;;;;;;;;;;;;;;;;;;;;;;;;;;;;;;;;;;;;;;;;;;;;;;;;;;;;;;;;;;;;;;;;;;;;;;;;;;;;;;;;;;;;;;;;;;;;;;;;;;;;;;;;;;;;;;;;;;;;;;;;;;;;;;;;;;;;;;;;;;
1980;[9826] BAUBRON J. C. (1980);samp. BM;;ARABIAN-NUBIAN SHIELD / SAUDI ARABIA / HARRAT KHAYBAR / JABAL AL ABYAD VOLCANIC CHAIN;;25.67;39.83;25.67;39.83;;;OUTCROP;;;SUBAERIAL;VOLCANIC ROCK;BENMOREITE;;;;;NEOGENE;;;;;;;MINERAL / COMPONENT (INCL. GROUNDMASS);OLIVINE;;PHENOCRYST;CORE;PRIMARY;;;;;35.27;0;;;;0;0;;;;;;;;;45.3;;;0.28;19.46;0.86;;;;;;0.03;EMP (EPMA);;;0;;;;;;;;;;;;;;;;;;;;;;;;;;;;;;;;;;;;;;;;;;;;;;;;;;;;;;;;;;;;;;;;;;;;;;;;;;;;;;;;;;;;;;;;;;;;;;;;;;;;;;;;;;;;;;;;;;;;;;;;;;;;;;;;;;;;;;;;;;;;;;;;;;;;;;;;;;;;;;;;;;;;;;;;;;;;;;;;;;;;;;;;;;;;;;;;;;;;;;;;;;;;;;;;;;;;;;;;;;;;;;;;;;;;;;;;;;;;;;;;42.9;;;;;;;;;;;;;;;;;;;;;;;;;;;;
1980;[9826] BAUBRON J. C. (1980);samp. BM;;ARABIAN-NUBIAN SHIELD / SAUDI ARABIA / HARRAT KHAYBAR / JABAL AL ABYAD VOLCANIC CHAIN;;25.67;39.83;25.67;39.83;;;OUTCROP;;;SUBAERIAL;VOLCANIC ROCK;BENMOREITE;;;;;NEOGENE;;;;;;;MINERAL / COMPONENT (INCL. GROUNDMASS);OLIVINE;;GROUNDMASS;;PRIMARY;;;;;32.19;0.59;;;;0;0;;;;;;;;;57.94;;;1.15;6.46;2.28;;;;;;0.05;EMP (EPMA);;;0.05;;;;;;;;;;;;;;;;;;;;;;;;;;;;;;;;;;;;;;;;;;;;;;;;;;;;;;;;;;;;;;;;;;;;;;;;;;;;;;;;;;;;;;;;;;;;;;;;;;;;;;;;;;;;;;;;;;;;;;;;;;;;;;;;;;;;;;;;;;;;;;;;;;;;;;;;;;;;;;;;;;;;;;;;;;;;;;;;;;;;;;;;;;;;;;;;;;;;;;;;;;;;;;;;;;;;;;;;;;;;;;;;;;;;;;;;;;;;;;;;16.1;;;;;;;;;;;;;;;;;;;;;;;;;;;;
1980;[9826] BAUBRON J. C. (1980);samp. BM;;ARABIAN-NUBIAN SHIELD / SAUDI ARABIA / HARRAT KHAYBAR / JABAL AL ABYAD VOLCANIC CHAIN;;25.67;39.83;25.67;39.83;;;OUTCROP;;;SUBAERIAL;VOLCANIC ROCK;BENMOREITE;;;;;NEOGENE;;;;;;;MINERAL / COMPONENT (INCL. GROUNDMASS);PLAGIOCLASE;;PHENOCRYST;CORE;PRIMARY;;;;;62.98;0;;;;22.59;0.18;;;;;;;;;0.14;;;4.33;0;0;;;;;;1.56;EMP (EPMA);;;8.69;;;;;;;;;;;;;;;;;;;;;;;;;;;;;;;;;;;;;;;;;;;;;;;;;;;;;;;;;;;;;;;;;;;;;;;;;;;;;;;;;;;;;;;;;;;;;;;;;;;;;;;;;;;;;;;;;;;;;;;;;;;;;;;;;;;;;;;;;;;;;;;;;;;;;;;;;;;;;;;;;;;;;;;;;;;;;;;;;;;;;;;;;;;;;;;;;;;;;;;;;;;;;;;;;;;;;;;;;;;;;;;;;;;;;;;;;;71.8;19.7;;;;;;;;;;;;;8.5;;;;;;;;;;;;;;;;;;;;
1998;[9828] KAMPUNZU A. B. (1998);samp. TRK4;;EAST AFRICAN RIFT / WESTERN EAST AFRICAN RIFT (TANGANYIKA RIFT) / VIRUNGA PROVINCE;;-1.4;29.6;-1.4;29.6;;;OUTCROP;;;SUBAERIAL;VOLCANIC ROCK;BENMOREITE;MODERATELY PORPHYRITIC TO APHYRIC;;;;MIOCENE;;;;;;;WHOLE ROCK;;;;;;;;;;54.19;0.37;;;;17.95;;;;;;;;;2.3;;4;;3.66;1.22;0.23;;;;;;3.24;AAS;3.83;NOT;8.22;0.26;;;;;;;;;;;;0.61;;;;;;;;;;;;;;;1.24E-06;MS_ID;;;;;;;;;;;;;;;;;;;;;;;;;;;;;;;;;;;;;;;;;;;;;;;;;;;;;;;;;;;;;;;;;;;;;;;;;;;;;;;;;;;;;;;;;;;;;;;;;;;;;;;;;;;;;;;;;;;;;;;;;;;;;;;;;;;;;;;;;;;;;;;;;;;;;;;;;;;;;;;;;;;;;;;;;;;;;;;;;;;;;;;;;;;;;;;;;;;;;;;;;;;;;;;;;;;;;;;;;;;;;;;;;;;;;;;11.8;K-AR;;;;;;;
1998;[9828] KAMPUNZU A. B. (1998);samp. TRK2A;;EAST AFRICAN RIFT / WESTERN EAST AFRICAN RIFT (TANGANYIKA RIFT) / VIRUNGA PROVINCE;;-1.4;29.6;-1.4;29.6;;;OUTCROP;;;SUBAERIAL;VOLCANIC ROCK;BENMOREITE;MODERATELY PORPHYRITIC TO APHYRIC;;;;MIOCENE;;;;;;;WHOLE ROCK;;;;;;;;;;53.75;0.53;;;;17.83;;;;;;;;;2.36;;3.95;;4.1;1.47;0.18;;;;;;3.23;AAS;3.59;NOT;7.6;0.39;;;;;;;;;;;;2.64;;;;;;;;;;;;;;;1.067E-06;MS_ID;;;;;;;;;;;;;;;;;;;;;;;;;;;;;;;;;;;;;;;;;;;;;;;;;;;;;;;;;;;;;;;;;;;;;;;;;;;;;;;;;;;;;;;;;;;;;;;;;;;;;;;;;;;;;;;;;;;;;;;;;;;;;;;;;;;;;;;;;;;;;;;;;;;;;;;;;;;;;;;;;;;;;;;;;;;;;;;;;;;;;;;;;;;;;;;;;;;;;;;;;;;;;;;;;;;;;;;;;;;;;;;;;;;;;;;10.2;K-AR;;;;;;;
2007;[9840] OROZCO-ESQUIVEL M. T.(2007)  [GeoReM [3329] ];samp. EAP40;;MEXICAN VOLCANIC BELTS / TRANS MEXICAN VOLCANIC BELT / VERACRUZ / SOUTHERN VOLCANIC AREA;VOLCANIC FIELDS OF THE EASTERN TRANS MEXICAN VOLCANIC BELT;19.6174;-96.7416;19.6174;-96.7416;;;OUTCROP;;;SUBAERIAL;VOLCANIC ROCK;BENMOREITE;;;;;NEOGENE;;;;;;;WHOLE ROCK;;;;;;;;;;55.34;1.88;;;;17.84;;;;;;;;8.84;;;;;4.22;0.62;0.07;;;;;;3.19;XRF;;;5.23;1.052;;;;;;;;;;;;0.98;;;;;;;;;;;;;;;;;;;;;;;;;;;;;;;;;;0;ICPMS;;;8;ICPMS;;;0;ICPMS;;;;;;;;;;;;;;;;;;;63;ICPMS;;;;;645;ICPMS;;;;;39.1;ICPMS;;;423;ICPMS;;;45;ICPMS;;;;;;;;;;;;;0.9;ICPMS;;;850;ICPMS;;;58.2;ICPMS;;;103.2;ICPMS;;;14.42;58.5;ICPMS;;;;;11.59;ICPMS;;;3.33;ICPMS;;;9.69;ICPMS;;;1.5;ICPMS;;;7.68;ICPMS;;;1.45;3.9;ICPMS;;;0.56;3.3;ICPMS;;;0.45;10.06;2.85;;;;;;;9;ICPMS;;;;;;10.6;ICPMS;;;3.29;ICPMS;;;;;;;;;;;;;;;;;;;;;;;;;;;;;;;;;;;;;;;;;;;;;;;;;;;;;;;;;;;;;;;;;;;;;;;;;;;;;;;;;;;;;
2007;[9925] PFNDER J. A.(2007)  [GeoReM [2953] ];samp. 57DS6;7539;PITCAIRN-GAMBIER CHAIN / VOLCANO 5 (PITCAIRN-GAMBIER CHAIN);;-25.25;-129.33;-25.25;-129.33;-2700;-2700;DREDGE;;;SUBAQUATIC;VOLCANIC ROCK;BENMOREITE;;;;;;;;;;;;WHOLE ROCK;;;;;;;;;;;;;;;;;;;;;;;;;;;;;;;;;;;;;;;;;;;;;;;;;;;;;;;;;;;;;;;;;;;;;;;;;;;;;;;;;;;;;;;;;;;;;;;;;;;;;;;;;;;;;;;;;;;;;;;;;;;;;;;;;;;538.2;ICPMS_ID;;;54.5;ICPMS;;;;;;;;;;;;;;;;;;;;;;;;;;;;;;;;;;;;;;;;;;;;;;;;;;;;;;;;;;;;;;;;;;0.551;12.59;3.47;;;;;;;;;;;;;;;;;;;;;;;;;;;;;;;;;;;;;;;;;;;;;;;;0.28269;0.0062;;;;;;;;;;;;;;;;;;;;;;;;;;;;;;;;;;;;;;;;;;;;;;;;;;;;;;;
1991;[9954] ZANETTIN B. (1991);samp. ET7531;;EAST AFRICAN RIFT / ETHIOPIAN RIFT / MAIN ETHIOPIAN RIFT;BRIDGE OF GOD, 10 KM EAST OF UALO RIVER, GANJULI RIFT;5.95;37.78;5.95;37.78;;;OUTCROP;;;SUBAERIAL;VOLCANIC ROCK;BENMOREITE;;;;;QUATERNARY;;;;;;;WHOLE ROCK;;;;;;;;;;55.36;1.18;;;;17.58;;;;;;;;;1.96;;5.12;;4.97;1.65;0.18;;;;;;3.53;NOT;;;5.78;0.36;;;;;;;;;;;;1.63;;;;;;;;;;;;;;;;;;;;;;;;;;;;;;;;;;;;;;;;;;;;;;;;;;;;;;;;;;;;;;;;;;;;;;;;;;;;;;;;;;;;;;;;;;;;;;;;;;;;;;;;;;;;;;;;;;;;;;;;;;;;;;;;;;;;;;;;;;;;;;;;;;;;;;;;;;;;;;;;;;;;;;;;;;;;;;;;;;;;;;;;;;;;;;;;;;;;;;;;;;;;;;;;;;;;;;;;;;;;;;;;;;;;;;;;;;;;;;;;;;;;;;;;;;;;;;;
2003;[9969] HORNIG I. (2003);samp. CI001;;ANTARCTICA / WEST ANTARCTIC RIFT SYSTEM / ROSS SEA RIFT;HAWKES HEIGHTS, COULMAN ISLAND;-73.62;169.83;-73.62;169.83;;;OUTCROP;;;SUBAERIAL;VOLCANIC ROCK;BENMOREITE;;;;;CENOZOIC;;;;;;;WHOLE ROCK;;;;;;;;;;56.09;1.02;;;;19.06;;;;;;;;;3.57;;2.81;;4.06;0.92;0.25;;;;;;2.88;XRF;;;6.89;0.24;;;;;;;;;;;;0.89;;;;;;;;;;;;;;;;;;;;;;;;;;;;;;16;XRF;;;1;XRF;;;44;XRF;;;2;XRF;;;6;XRF;;;113;XRF;;;;;;;;;;;92;XRF;;;;;;;;;;;45;XRF;;;653;XRF;;;206;XRF;;;;;;;;;;;;;;;;;806;XRF;;;103.4;HPLC;;;200;HPLC;;;21;71.2;HPLC;;;;;11.24;HPLC;;;3.53;HPLC;;;8.99;HPLC;;;1.28;HPLC;;;8.52;HPLC;;;1.69;4.49;HPLC;;;0.72;4.67;HPLC;;;0.73;;;;;;;;;;;;;;;;;;;;;;;;;;;;;;;;;;;;;;;;;;;;;;;;;;;;;;;;;;;;;;;;;;;;;;;;;;;;;;;;;;;;;;;;;;;;;;;;;;;;;;;;;;
1997;[9970] MLLER P. (1997);samp. EP 04-082;;ANTARCTICA / WEST ANTARCTIC RIFT SYSTEM / ROSS SEA RIFT / MOUNT MELBOURNE;EDMONSON POINT, VICTORIA LAND, MCMURDO VOLCANIC GROUP;-74.4;165;-74.4;165;;;OUTCROP;;;SUBAERIAL;VOLCANIC ROCK;BENMOREITE;;LAVA FLOW;;;CENOZOIC;;;;;;;MINERAL / COMPONENT (INCL. GROUNDMASS);GROUNDMASS;;;;PRIMARY;;;;;;;;;;;;;;;;;;;;;;;;;;;;;;;;;;;;;;;;;;;;;;;;;;;3.3;;;;;;;;;;;;6E-09;MS_ID;;;;;;;;;;;;;;;;;;;;;;;;;;;;;;;;;;;;;;;;;;;;;;;;;;;;;;;;;;;;;;;;;;;;;;;;;;;;;;;;;;;;;;;;;;;;;;;;;;;;;;;;;;;;;;;;;;;;;;;;;;;;;;;;;;;;;;;;;;;;;;;;;;;;;;;;;;;;;;;;;;;;;;;;;;;;;;;;;;;;;;;;;;;;;;;;;;;;;;;;;;;;;;;;;;;;;;;;;;;;;;;;;;;;;;;0.047;K-AR;;;;;;;