Year;CITATION;SAMPLE NAME;UNIQUE_ID;LOCATION;LOCATION COMMENT;LATITUDE (MIN.);LONGITUDE (MIN.);LATITUDE (MAX.);LONGITUDE (MAX.);ELEVATION (MIN.);ELEVATION (MAX.);SAMPLING TECHNIQUE;DRILLING DEPTH (MIN.);DRILLING DEPTH (MAX.);LAND/SEA (SAMPLING);ROCK TYPE;ROCK NAME;ROCK TEXTURE;SAMPLE COMMENT;AGE (MIN.);AGE (MAX.);GEOLOGICAL AGE;GEOLOGICAL AGE PREFIX;ERUPTION DAY;ERUPTION MONTH;ERUPTION YEAR;ALTERATION;ALTERATION TYPE;TYPE OF MATERIAL;MINERAL / COMPONENT;SPOT (MINERAL);CRYSTAL;RIM / CORE (MINERAL GRAINS);PRIMARY/SECONDARY;INCLUSION TYPE;MINERAL (INCLUSION);HOSTMINERAL (INCLUSION);HEATING;SIO2(WT%);TIO2(WT%);ZRO2(WT%);HFO2(WT%);THO2(WT%);AL2O3(WT%);CR2O3(WT%);LA2O3(WT%);CE2O3(WT%);ND2O3(WT%);SM2O3(WT%);V2O3(WT%);NB2O5(WT%);FE2O3T(WT%);FE2O3(WT%);FEOT(WT%);FEO(WT%);FET(WT%);CAO(WT%);MGO(WT%);MNO(WT%);BAO(WT%);SRO(WT%);NIO(WT%);ZNO(WT%);RB2O(WT%);K2O(WT%);;;;NA2O(WT%);P2O5(WT%);AS2O5(WT%);H2O(WT%);H2OP(WT%);H2OM(WT%);CO2(WT%);C(WT%);F(WT%);CL(WT%);OH(WT%);SO3(WT%);S(WT%);LOI(WT%);TI(WT%);CA(WT%);K(WT%);LI(PPM);BE(PPM);B(PPM);F(PPM);P(PPM);S(PPM);CL(PPM);AR40(AT/G);;;;AR40(CCMSTP/G);;;;AR40(MOL/G);;;;AR40(PPB);K(PPM);SC(PPM);;;;TI(PPM);V(PPM);;;;CR(PPM);;;;CO(PPM);;;;NI(PPM);;;;CU(PPM);;;;ZN(PPM);;;;GA(PPM);;;;GE(PPM);AS(PPM);AS(PPB);SE(PPM);RB(PPM);;;;;;SR(PPM);;;;;;Y(PPM);;;;ZR(PPM);;;;NB(PPM);;;;MO(PPM);AG(PPM);CD(PPM);IN(PPM);SN(PPM);SB(PPM): altern. values or methods;;;;TE(PPM);CS(PPM): altern. values or methods;;;;BA(PPM): altern. values or methods;;;;LA(PPM): altern. values or methods;;;;CE(PPM): altern. values or methods;;;;PR(PPM);ND(PPM): altern. values or methods;;;;;;SM(PPM): altern. values or methods;;;;EU(PPM): altern. values or methods;;;;GD(PPM): altern. values or methods;;;;TB(PPM): altern. values or methods;;;;DY(PPM): altern. values or methods;;;;HO(PPM);ER(PPM): altern. values or methods;;;;TM(PPM);YB(PPM): altern. values or methods;;;;LU(PPM);HF(PPM);TA(PPM);W(PPM);RE(PPM);AU(PPM);HG(PPM);HG(PPB);TL(PPM);PB(PPM): altern. values or methods;;;;BI(PPM);PO210_ACT(DPM/G);RA226_ACT(DPM/G);TH(PPM): altern. values or methods;;;;U(PPM): altern. values or methods;;;;ND143_ND144;ND143_ND144_INI;EPSILON_ND;EPSILON_ND_INI;SM147_ND144;SR87_SR86;SR87_SR86_INI;EPSILON_SR_INI;RB87_SR86;PB206_PB204: altern. values or methods;;;;PB206_PB204_INI;PB207_PB204: altern. values or methods;;;;PB207_PB204_INI;PB207_PB206;PB208_PB204: altern. values or methods;;;;PB208_PB204_INI;PB208_PB206;HF176_HF177;LU176_HF177;AR38_AR36;AR40_AR36;AR40_AR36_INI;PB206_U238;PB207_U235;RA226_TH230_ACT;PA231_U235_ACT;TH230_TH232_ACT;TH230_U238_ACT;TH232_PB204;U234_U238_ACT;U235_PB204;U238_PB204;U238_TH232_ACT;D7LI(VS LSVEC);D13C(VS PDB);D18O(PER MIL);D18O(VS SMOW);D18O(VS VSMOW);D34S(VS VCDT);ALBITE(MOL%);ANORTHITE(MOL%);CA OLIVINE(MOL%);CHROMITE(MOL%);ENSTATITE(MOL%);FAYALITE(MOL%);FORSTERITE(MOL%);FERROSILITE(MOL%);HEMATITE(MOL%);HERCYNITE(MOL%);ILMENITE(MOL%);MAGNESIOFERRITE(MOL%);MONTICELLITE(MOL%);MAGNETITE(MOL%);ORTHOCLASE(MOL%);PICROCHROMITE(MOL%);SPINEL(MOL%);TEPHROITE(MOL%);ULVOSPINEL(MOL%);WOLLASTONITE(MOL%);AGE(KA): altern. values or methods;;;;;;AGE(MA): altern. values or methods;;;;;;AGE_PB207_U235(MA);AGE_PB206_U238(MA);
2010;[14264] NICOTRA E. (2010);samp. EL85;;ETNA/SICILY / ELLITTICO-MONGIBELLO TRANSITION SEQUENCE;PIANO DELLE CONCAZZE AREA, BETWEEN PIZZI DE NERI AND THE NORTH EAST CRATER;37.73;15;37.73;15;2790;2790;OUTCROP;;;SUBAERIAL;VOLCANIC ROCK;BENMOREITE;MESOPHYRIC, SERIATE;LAVA FLOW AT THE BOTTOM;15000;15000;PLEISTOCENE;;;;;;;MINERAL / COMPONENT (INCL. GROUNDMASS);PHLOGOPITE;;;;PRIMARY;;;;;41.2605;4.375;;;;11.2573;0;;;;;;;;;8.6658;;;0;20.368;0.1188;;;;;;8.9895;EMP (EPMA);;;0.8233;;;;;;;;6.0305;0.086;;;;;;;;;;;;;;;;;;;;;;;;;;;;;;;;;;;;;;;;;;;;;;;;;;;;;;;;;;;;;;;;;;;;;;;;;;;;;;;;;;;;;;;;;;;;;;;;;;;;;;;;;;;;;;;;;;;;;;;;;;;;;;;;;;;;;;;;;;;;;;;;;;;;;;;;;;;;;;;;;;;;;;;;;;;;;;;;;;;;;;;;;;;;;;;;;;;;;;;;;;;;;;;;;;;;;;;;;;;;;;;;;;;;;;;;;;;;;;;;;;;;;;;;;;;;;;;;;;;
2010;[14264] NICOTRA E. (2010);samp. EL85;;ETNA/SICILY / ELLITTICO-MONGIBELLO TRANSITION SEQUENCE;PIANO DELLE CONCAZZE AREA, BETWEEN PIZZI DE NERI AND THE NORTH EAST CRATER;37.73;15;37.73;15;2790;2790;OUTCROP;;;SUBAERIAL;VOLCANIC ROCK;BENMOREITE;MESOPHYRIC, SERIATE;LAVA FLOW AT THE BOTTOM;15000;15000;PLEISTOCENE;;;;;;;MINERAL / COMPONENT (INCL. GROUNDMASS);PHLOGOPITE;;;;PRIMARY;;;;;42.4414;3.8294;;;;10.8667;0.0253;;;;;;;;;8.2675;;;0;20.845;0.1027;;;;;;8.694;EMP (EPMA);;;1.2183;;;;;;;;5.9312;0.0647;;;;;;;;;;;;;;;;;;;;;;;;;;;;;;;;;;;;;;;;;;;;;;;;;;;;;;;;;;;;;;;;;;;;;;;;;;;;;;;;;;;;;;;;;;;;;;;;;;;;;;;;;;;;;;;;;;;;;;;;;;;;;;;;;;;;;;;;;;;;;;;;;;;;;;;;;;;;;;;;;;;;;;;;;;;;;;;;;;;;;;;;;;;;;;;;;;;;;;;;;;;;;;;;;;;;;;;;;;;;;;;;;;;;;;;;;;;;;;;;;;;;;;;;;;;;;;;;;;;
2010;[14264] NICOTRA E. (2010);samp. EL85;;ETNA/SICILY / ELLITTICO-MONGIBELLO TRANSITION SEQUENCE;PIANO DELLE CONCAZZE AREA, BETWEEN PIZZI DE NERI AND THE NORTH EAST CRATER;37.73;15;37.73;15;2790;2790;OUTCROP;;;SUBAERIAL;VOLCANIC ROCK;BENMOREITE;MESOPHYRIC, SERIATE;LAVA FLOW AT THE BOTTOM;15000;15000;PLEISTOCENE;;;;;;;MINERAL / COMPONENT (INCL. GROUNDMASS);PHLOGOPITE;;;;PRIMARY;;;;;42.0762;4.0472;;;;10.8132;0;;;;;;;;;8.4533;;;0.0124;20.4845;0.2489;;;;;;8.5263;EMP (EPMA);;;1.1854;;;;;;;;6.1495;0.1059;;;;;;;;;;;;;;;;;;;;;;;;;;;;;;;;;;;;;;;;;;;;;;;;;;;;;;;;;;;;;;;;;;;;;;;;;;;;;;;;;;;;;;;;;;;;;;;;;;;;;;;;;;;;;;;;;;;;;;;;;;;;;;;;;;;;;;;;;;;;;;;;;;;;;;;;;;;;;;;;;;;;;;;;;;;;;;;;;;;;;;;;;;;;;;;;;;;;;;;;;;;;;;;;;;;;;;;;;;;;;;;;;;;;;;;;;;;;;;;;;;;;;;;;;;;;;;;;;;;
2010;[14264] NICOTRA E. (2010);samp. EL85;;ETNA/SICILY / ELLITTICO-MONGIBELLO TRANSITION SEQUENCE;PIANO DELLE CONCAZZE AREA, BETWEEN PIZZI DE NERI AND THE NORTH EAST CRATER;37.73;15;37.73;15;2790;2790;OUTCROP;;;SUBAERIAL;VOLCANIC ROCK;BENMOREITE;MESOPHYRIC, SERIATE;LAVA FLOW AT THE BOTTOM;15000;15000;PLEISTOCENE;;;;;;;MINERAL / COMPONENT (INCL. GROUNDMASS);PHLOGOPITE;;;;PRIMARY;;;;;41.8055;3.9197;;;;11.2331;0;;;;;;;;;8.5645;;;0.022;20.5706;0.0843;;;;;;8.7057;EMP (EPMA);;;1.0733;;;;;;;;6.0718;0.0718;;;;;;;;;;;;;;;;;;;;;;;;;;;;;;;;;;;;;;;;;;;;;;;;;;;;;;;;;;;;;;;;;;;;;;;;;;;;;;;;;;;;;;;;;;;;;;;;;;;;;;;;;;;;;;;;;;;;;;;;;;;;;;;;;;;;;;;;;;;;;;;;;;;;;;;;;;;;;;;;;;;;;;;;;;;;;;;;;;;;;;;;;;;;;;;;;;;;;;;;;;;;;;;;;;;;;;;;;;;;;;;;;;;;;;;;;;;;;;;;;;;;;;;;;;;;;;;;;;;
2010;[14264] NICOTRA E. (2010);samp. EL85;;ETNA/SICILY / ELLITTICO-MONGIBELLO TRANSITION SEQUENCE;PIANO DELLE CONCAZZE AREA, BETWEEN PIZZI DE NERI AND THE NORTH EAST CRATER;37.73;15;37.73;15;2790;2790;OUTCROP;;;SUBAERIAL;VOLCANIC ROCK;BENMOREITE;MESOPHYRIC, SERIATE;LAVA FLOW AT THE BOTTOM;15000;15000;PLEISTOCENE;;;;;;;MINERAL / COMPONENT (INCL. GROUNDMASS);PHLOGOPITE;;;;PRIMARY;;;;;41.6056;4.1808;;;;11.037;0.0126;;;;;;;;;8.5491;;;0;20.2946;0.1656;;;;;;8.6353;EMP (EPMA);;;1.1338;;;;;;;;7.1818;0.0627;;;;;;;;;;;;;;;;;;;;;;;;;;;;;;;;;;;;;;;;;;;;;;;;;;;;;;;;;;;;;;;;;;;;;;;;;;;;;;;;;;;;;;;;;;;;;;;;;;;;;;;;;;;;;;;;;;;;;;;;;;;;;;;;;;;;;;;;;;;;;;;;;;;;;;;;;;;;;;;;;;;;;;;;;;;;;;;;;;;;;;;;;;;;;;;;;;;;;;;;;;;;;;;;;;;;;;;;;;;;;;;;;;;;;;;;;;;;;;;;;;;;;;;;;;;;;;;;;;;
2010;[14264] NICOTRA E. (2010);samp. EL85;;ETNA/SICILY / ELLITTICO-MONGIBELLO TRANSITION SEQUENCE;PIANO DELLE CONCAZZE AREA, BETWEEN PIZZI DE NERI AND THE NORTH EAST CRATER;37.73;15;37.73;15;2790;2790;OUTCROP;;;SUBAERIAL;VOLCANIC ROCK;BENMOREITE;MESOPHYRIC, SERIATE;LAVA FLOW AT THE BOTTOM;15000;15000;PLEISTOCENE;;;;;;;MINERAL / COMPONENT (INCL. GROUNDMASS);PHLOGOPITE;;;;PRIMARY;;;;;41.4292;4.1055;;;;10.9487;0;;;;;;;;;8.7209;;;0;20.2407;0.132;;;;;;8.5301;EMP (EPMA);;;1.1358;;;;;;;;6.473;0.0574;;;;;;;;;;;;;;;;;;;;;;;;;;;;;;;;;;;;;;;;;;;;;;;;;;;;;;;;;;;;;;;;;;;;;;;;;;;;;;;;;;;;;;;;;;;;;;;;;;;;;;;;;;;;;;;;;;;;;;;;;;;;;;;;;;;;;;;;;;;;;;;;;;;;;;;;;;;;;;;;;;;;;;;;;;;;;;;;;;;;;;;;;;;;;;;;;;;;;;;;;;;;;;;;;;;;;;;;;;;;;;;;;;;;;;;;;;;;;;;;;;;;;;;;;;;;;;;;;;;
2010;[14264] NICOTRA E. (2010);samp. EL85;;ETNA/SICILY / ELLITTICO-MONGIBELLO TRANSITION SEQUENCE;PIANO DELLE CONCAZZE AREA, BETWEEN PIZZI DE NERI AND THE NORTH EAST CRATER;37.73;15;37.73;15;2790;2790;OUTCROP;;;SUBAERIAL;VOLCANIC ROCK;BENMOREITE;MESOPHYRIC, SERIATE;LAVA FLOW AT THE BOTTOM;15000;15000;PLEISTOCENE;;;;;;;MINERAL / COMPONENT (INCL. GROUNDMASS);PHLOGOPITE;;;;PRIMARY;;;;;41.8434;4.2179;;;;11.3169;0;;;;;;;;;9.2231;;;0;19.9152;0.1268;;;;;;8.6422;EMP (EPMA);;;1.2625;;;;;;;;6.3333;0.0484;;;;;;;;;;;;;;;;;;;;;;;;;;;;;;;;;;;;;;;;;;;;;;;;;;;;;;;;;;;;;;;;;;;;;;;;;;;;;;;;;;;;;;;;;;;;;;;;;;;;;;;;;;;;;;;;;;;;;;;;;;;;;;;;;;;;;;;;;;;;;;;;;;;;;;;;;;;;;;;;;;;;;;;;;;;;;;;;;;;;;;;;;;;;;;;;;;;;;;;;;;;;;;;;;;;;;;;;;;;;;;;;;;;;;;;;;;;;;;;;;;;;;;;;;;;;;;;;;;;
2010;[14264] NICOTRA E. (2010);samp. EL85;;ETNA/SICILY / ELLITTICO-MONGIBELLO TRANSITION SEQUENCE;PIANO DELLE CONCAZZE AREA, BETWEEN PIZZI DE NERI AND THE NORTH EAST CRATER;37.73;15;37.73;15;2790;2790;OUTCROP;;;SUBAERIAL;VOLCANIC ROCK;BENMOREITE;MESOPHYRIC, SERIATE;LAVA FLOW AT THE BOTTOM;15000;15000;PLEISTOCENE;;;;;;;MINERAL / COMPONENT (INCL. GROUNDMASS);PHLOGOPITE;;;;PRIMARY;;;;;41.818;4.137;;;;11.2499;0.0126;;;;;;;;;9.3545;;;0.0137;20.1313;0.1511;;;;;;8.6746;EMP (EPMA);;;1.0489;;;;;;;;5.355;0.0628;;;;;;;;;;;;;;;;;;;;;;;;;;;;;;;;;;;;;;;;;;;;;;;;;;;;;;;;;;;;;;;;;;;;;;;;;;;;;;;;;;;;;;;;;;;;;;;;;;;;;;;;;;;;;;;;;;;;;;;;;;;;;;;;;;;;;;;;;;;;;;;;;;;;;;;;;;;;;;;;;;;;;;;;;;;;;;;;;;;;;;;;;;;;;;;;;;;;;;;;;;;;;;;;;;;;;;;;;;;;;;;;;;;;;;;;;;;;;;;;;;;;;;;;;;;;;;;;;;;
2010;[14264] NICOTRA E. (2010);samp. EL85;;ETNA/SICILY / ELLITTICO-MONGIBELLO TRANSITION SEQUENCE;PIANO DELLE CONCAZZE AREA, BETWEEN PIZZI DE NERI AND THE NORTH EAST CRATER;37.73;15;37.73;15;2790;2790;OUTCROP;;;SUBAERIAL;VOLCANIC ROCK;BENMOREITE;MESOPHYRIC, SERIATE;LAVA FLOW AT THE BOTTOM;15000;15000;PLEISTOCENE;;;;;;;MINERAL / COMPONENT (INCL. GROUNDMASS);PHLOGOPITE;;;;PRIMARY;;;;;41.372;4.1321;;;;11.9553;0.0063;;;;;;;;;8.6722;;;0.0591;19.7329;0.1381;;;;;;8.4351;EMP (EPMA);;;1.1315;;;;;;;;6.333;0.0556;;;;;;;;;;;;;;;;;;;;;;;;;;;;;;;;;;;;;;;;;;;;;;;;;;;;;;;;;;;;;;;;;;;;;;;;;;;;;;;;;;;;;;;;;;;;;;;;;;;;;;;;;;;;;;;;;;;;;;;;;;;;;;;;;;;;;;;;;;;;;;;;;;;;;;;;;;;;;;;;;;;;;;;;;;;;;;;;;;;;;;;;;;;;;;;;;;;;;;;;;;;;;;;;;;;;;;;;;;;;;;;;;;;;;;;;;;;;;;;;;;;;;;;;;;;;;;;;;;;
2010;[14264] NICOTRA E. (2010);samp. EL85;;ETNA/SICILY / ELLITTICO-MONGIBELLO TRANSITION SEQUENCE;PIANO DELLE CONCAZZE AREA, BETWEEN PIZZI DE NERI AND THE NORTH EAST CRATER;37.73;15;37.73;15;2790;2790;OUTCROP;;;SUBAERIAL;VOLCANIC ROCK;BENMOREITE;MESOPHYRIC, SERIATE;LAVA FLOW AT THE BOTTOM;15000;15000;PLEISTOCENE;;;;;;;MINERAL / COMPONENT (INCL. GROUNDMASS);PHLOGOPITE;;;;PRIMARY;;;;;41.5322;4.1419;;;;11.1302;0;;;;;;;;;8.4435;;;0.0165;20.3418;0.1879;;;;;;8.7367;EMP (EPMA);;;1.0502;;;;;;;;6.663;0.0986;;;;;;;;;;;;;;;;;;;;;;;;;;;;;;;;;;;;;;;;;;;;;;;;;;;;;;;;;;;;;;;;;;;;;;;;;;;;;;;;;;;;;;;;;;;;;;;;;;;;;;;;;;;;;;;;;;;;;;;;;;;;;;;;;;;;;;;;;;;;;;;;;;;;;;;;;;;;;;;;;;;;;;;;;;;;;;;;;;;;;;;;;;;;;;;;;;;;;;;;;;;;;;;;;;;;;;;;;;;;;;;;;;;;;;;;;;;;;;;;;;;;;;;;;;;;;;;;;;;
2010;[14264] NICOTRA E. (2010);samp. EL85;;ETNA/SICILY / ELLITTICO-MONGIBELLO TRANSITION SEQUENCE;PIANO DELLE CONCAZZE AREA, BETWEEN PIZZI DE NERI AND THE NORTH EAST CRATER;37.73;15;37.73;15;2790;2790;OUTCROP;;;SUBAERIAL;VOLCANIC ROCK;BENMOREITE;MESOPHYRIC, SERIATE;LAVA FLOW AT THE BOTTOM;15000;15000;PLEISTOCENE;;;;;;;MINERAL / COMPONENT (INCL. GROUNDMASS);PHLOGOPITE;;;;PRIMARY;;;;;41.0072;4.2656;;;;11.3593;0;;;;;;;;;8.6172;;;0.0193;20.1648;0.1452;;;;;;8.8402;EMP (EPMA);;;0.99;;;;;;;;6.4886;0.0753;;;;;;;;;;;;;;;;;;;;;;;;;;;;;;;;;;;;;;;;;;;;;;;;;;;;;;;;;;;;;;;;;;;;;;;;;;;;;;;;;;;;;;;;;;;;;;;;;;;;;;;;;;;;;;;;;;;;;;;;;;;;;;;;;;;;;;;;;;;;;;;;;;;;;;;;;;;;;;;;;;;;;;;;;;;;;;;;;;;;;;;;;;;;;;;;;;;;;;;;;;;;;;;;;;;;;;;;;;;;;;;;;;;;;;;;;;;;;;;;;;;;;;;;;;;;;;;;;;;
2010;[14264] NICOTRA E. (2010);samp. EL85;;ETNA/SICILY / ELLITTICO-MONGIBELLO TRANSITION SEQUENCE;PIANO DELLE CONCAZZE AREA, BETWEEN PIZZI DE NERI AND THE NORTH EAST CRATER;37.73;15;37.73;15;2790;2790;OUTCROP;;;SUBAERIAL;VOLCANIC ROCK;BENMOREITE;MESOPHYRIC, SERIATE;LAVA FLOW AT THE BOTTOM;15000;15000;PLEISTOCENE;;;;;;;MINERAL / COMPONENT (INCL. GROUNDMASS);PHLOGOPITE;;;;PRIMARY;;;;;41.9592;3.9949;;;;10.9299;0;;;;;;;;;8.926;;;0.0275;20.0182;0.1766;;;;;;8.7245;EMP (EPMA);;;1.1653;;;;;;;;5.8357;0.0933;;;;;;;;;;;;;;;;;;;;;;;;;;;;;;;;;;;;;;;;;;;;;;;;;;;;;;;;;;;;;;;;;;;;;;;;;;;;;;;;;;;;;;;;;;;;;;;;;;;;;;;;;;;;;;;;;;;;;;;;;;;;;;;;;;;;;;;;;;;;;;;;;;;;;;;;;;;;;;;;;;;;;;;;;;;;;;;;;;;;;;;;;;;;;;;;;;;;;;;;;;;;;;;;;;;;;;;;;;;;;;;;;;;;;;;;;;;;;;;;;;;;;;;;;;;;;;;;;;;
2010;[14264] NICOTRA E. (2010);samp. EL85;;ETNA/SICILY / ELLITTICO-MONGIBELLO TRANSITION SEQUENCE;PIANO DELLE CONCAZZE AREA, BETWEEN PIZZI DE NERI AND THE NORTH EAST CRATER;37.73;15;37.73;15;2790;2790;OUTCROP;;;SUBAERIAL;VOLCANIC ROCK;BENMOREITE;MESOPHYRIC, SERIATE;LAVA FLOW AT THE BOTTOM;15000;15000;PLEISTOCENE;;;;;;;MINERAL / COMPONENT (INCL. GROUNDMASS);PHLOGOPITE;;;;PRIMARY;;;;;41.8331;4.3186;;;;11.2663;0.0253;;;;;;;;;9.0791;;;0.022;20.0602;0.1076;;;;;;8.5554;EMP (EPMA);;;1.1029;;;;;;;;5.5175;0.0951;;;;;;;;;;;;;;;;;;;;;;;;;;;;;;;;;;;;;;;;;;;;;;;;;;;;;;;;;;;;;;;;;;;;;;;;;;;;;;;;;;;;;;;;;;;;;;;;;;;;;;;;;;;;;;;;;;;;;;;;;;;;;;;;;;;;;;;;;;;;;;;;;;;;;;;;;;;;;;;;;;;;;;;;;;;;;;;;;;;;;;;;;;;;;;;;;;;;;;;;;;;;;;;;;;;;;;;;;;;;;;;;;;;;;;;;;;;;;;;;;;;;;;;;;;;;;;;;;;;
2010;[14264] NICOTRA E. (2010);samp. EL85;;ETNA/SICILY / ELLITTICO-MONGIBELLO TRANSITION SEQUENCE;PIANO DELLE CONCAZZE AREA, BETWEEN PIZZI DE NERI AND THE NORTH EAST CRATER;37.73;15;37.73;15;2790;2790;OUTCROP;;;SUBAERIAL;VOLCANIC ROCK;BENMOREITE;MESOPHYRIC, SERIATE;LAVA FLOW AT THE BOTTOM;15000;15000;PLEISTOCENE;;;;;;;MINERAL / COMPONENT (INCL. GROUNDMASS);PHLOGOPITE;;;;PRIMARY;;;;;41.6405;4.1973;;;;11.6007;0.0695;;;;;;;;;8.7907;;;0.0138;20.3432;0.0924;;;;;;8.5959;EMP (EPMA);;;1.1205;;;;;;;;5.2427;0.07;;;;;;;;;;;;;;;;;;;;;;;;;;;;;;;;;;;;;;;;;;;;;;;;;;;;;;;;;;;;;;;;;;;;;;;;;;;;;;;;;;;;;;;;;;;;;;;;;;;;;;;;;;;;;;;;;;;;;;;;;;;;;;;;;;;;;;;;;;;;;;;;;;;;;;;;;;;;;;;;;;;;;;;;;;;;;;;;;;;;;;;;;;;;;;;;;;;;;;;;;;;;;;;;;;;;;;;;;;;;;;;;;;;;;;;;;;;;;;;;;;;;;;;;;;;;;;;;;;;
2010;[14264] NICOTRA E. (2010);samp. EL85;;ETNA/SICILY / ELLITTICO-MONGIBELLO TRANSITION SEQUENCE;PIANO DELLE CONCAZZE AREA, BETWEEN PIZZI DE NERI AND THE NORTH EAST CRATER;37.73;15;37.73;15;2790;2790;OUTCROP;;;SUBAERIAL;VOLCANIC ROCK;BENMOREITE;MESOPHYRIC, SERIATE;LAVA FLOW AT THE BOTTOM;15000;15000;PLEISTOCENE;;;;;;;MINERAL / COMPONENT (INCL. GROUNDMASS);PHLOGOPITE;;;;PRIMARY;;;;;40.9449;4.434;;;;11.5056;0;;;;;;;;;8.9279;;;0;19.7457;0.1542;;;;;;8.676;EMP (EPMA);;;1.0273;;;;;;;;6.4844;0.0537;;;;;;;;;;;;;;;;;;;;;;;;;;;;;;;;;;;;;;;;;;;;;;;;;;;;;;;;;;;;;;;;;;;;;;;;;;;;;;;;;;;;;;;;;;;;;;;;;;;;;;;;;;;;;;;;;;;;;;;;;;;;;;;;;;;;;;;;;;;;;;;;;;;;;;;;;;;;;;;;;;;;;;;;;;;;;;;;;;;;;;;;;;;;;;;;;;;;;;;;;;;;;;;;;;;;;;;;;;;;;;;;;;;;;;;;;;;;;;;;;;;;;;;;;;;;;;;;;;;
2010;[14264] NICOTRA E. (2010);samp. EL85;;ETNA/SICILY / ELLITTICO-MONGIBELLO TRANSITION SEQUENCE;PIANO DELLE CONCAZZE AREA, BETWEEN PIZZI DE NERI AND THE NORTH EAST CRATER;37.73;15;37.73;15;2790;2790;OUTCROP;;;SUBAERIAL;VOLCANIC ROCK;BENMOREITE;MESOPHYRIC, SERIATE;LAVA FLOW AT THE BOTTOM;15000;15000;PLEISTOCENE;;;;;;;MINERAL / COMPONENT (INCL. GROUNDMASS);PHLOGOPITE;;;;PRIMARY;;;;;41.3948;4.4003;;;;11.5293;0.0442;;;;;;;;;8.7044;;;0;19.6736;0.1502;;;;;;8.9261;EMP (EPMA);;;0.9523;;;;;;;;5.2657;0.0717;;;;;;;;;;;;;;;;;;;;;;;;;;;;;;;;;;;;;;;;;;;;;;;;;;;;;;;;;;;;;;;;;;;;;;;;;;;;;;;;;;;;;;;;;;;;;;;;;;;;;;;;;;;;;;;;;;;;;;;;;;;;;;;;;;;;;;;;;;;;;;;;;;;;;;;;;;;;;;;;;;;;;;;;;;;;;;;;;;;;;;;;;;;;;;;;;;;;;;;;;;;;;;;;;;;;;;;;;;;;;;;;;;;;;;;;;;;;;;;;;;;;;;;;;;;;;;;;;;;
2010;[14264] NICOTRA E. (2010);samp. EL85;;ETNA/SICILY / ELLITTICO-MONGIBELLO TRANSITION SEQUENCE;PIANO DELLE CONCAZZE AREA, BETWEEN PIZZI DE NERI AND THE NORTH EAST CRATER;37.73;15;37.73;15;2790;2790;OUTCROP;;;SUBAERIAL;VOLCANIC ROCK;BENMOREITE;MESOPHYRIC, SERIATE;LAVA FLOW AT THE BOTTOM;15000;15000;PLEISTOCENE;;;;;;;MINERAL / COMPONENT (INCL. GROUNDMASS);PHLOGOPITE;;;;PRIMARY;;;;;41.8629;3.8958;;;;11.2866;0;;;;;;;;;8.3523;;;0.0055;20.48;0.0894;;;;;;9.3088;EMP (EPMA);;;0.8188;;;;;;;;6.7522;0.0699;;;;;;;;;;;;;;;;;;;;;;;;;;;;;;;;;;;;;;;;;;;;;;;;;;;;;;;;;;;;;;;;;;;;;;;;;;;;;;;;;;;;;;;;;;;;;;;;;;;;;;;;;;;;;;;;;;;;;;;;;;;;;;;;;;;;;;;;;;;;;;;;;;;;;;;;;;;;;;;;;;;;;;;;;;;;;;;;;;;;;;;;;;;;;;;;;;;;;;;;;;;;;;;;;;;;;;;;;;;;;;;;;;;;;;;;;;;;;;;;;;;;;;;;;;;;;;;;;;;
2010;[14264] NICOTRA E. (2010);samp. EL85;;ETNA/SICILY / ELLITTICO-MONGIBELLO TRANSITION SEQUENCE;PIANO DELLE CONCAZZE AREA, BETWEEN PIZZI DE NERI AND THE NORTH EAST CRATER;37.73;15;37.73;15;2790;2790;OUTCROP;;;SUBAERIAL;VOLCANIC ROCK;BENMOREITE;MESOPHYRIC, SERIATE;LAVA FLOW AT THE BOTTOM;15000;15000;PLEISTOCENE;;;;;;;MINERAL / COMPONENT (INCL. GROUNDMASS);PHLOGOPITE;;;;PRIMARY;;;;;42.0925;3.8344;;;;11.2601;0;;;;;;;;;8.8184;;;0.033;20.6974;0.1726;;;;;;8.5622;EMP (EPMA);;;1.1683;;;;;;;;7.3178;0.0466;;;;;;;;;;;;;;;;;;;;;;;;;;;;;;;;;;;;;;;;;;;;;;;;;;;;;;;;;;;;;;;;;;;;;;;;;;;;;;;;;;;;;;;;;;;;;;;;;;;;;;;;;;;;;;;;;;;;;;;;;;;;;;;;;;;;;;;;;;;;;;;;;;;;;;;;;;;;;;;;;;;;;;;;;;;;;;;;;;;;;;;;;;;;;;;;;;;;;;;;;;;;;;;;;;;;;;;;;;;;;;;;;;;;;;;;;;;;;;;;;;;;;;;;;;;;;;;;;;;
2010;[14264] NICOTRA E. (2010);samp. EL85;;ETNA/SICILY / ELLITTICO-MONGIBELLO TRANSITION SEQUENCE;PIANO DELLE CONCAZZE AREA, BETWEEN PIZZI DE NERI AND THE NORTH EAST CRATER;37.73;15;37.73;15;2790;2790;OUTCROP;;;SUBAERIAL;VOLCANIC ROCK;BENMOREITE;MESOPHYRIC, SERIATE;LAVA FLOW AT THE BOTTOM;15000;15000;PLEISTOCENE;;;;;;;MINERAL / COMPONENT (INCL. GROUNDMASS);PHLOGOPITE;;;;PRIMARY;;;;;41.0771;4.253;;;;11.1885;0.0758;;;;;;;;;8.8714;;;0.0522;20.078;0.2161;;;;;;8.5456;EMP (EPMA);;;1.0878;;;;;;;;5.6751;0.0646;;;;;;;;;;;;;;;;;;;;;;;;;;;;;;;;;;;;;;;;;;;;;;;;;;;;;;;;;;;;;;;;;;;;;;;;;;;;;;;;;;;;;;;;;;;;;;;;;;;;;;;;;;;;;;;;;;;;;;;;;;;;;;;;;;;;;;;;;;;;;;;;;;;;;;;;;;;;;;;;;;;;;;;;;;;;;;;;;;;;;;;;;;;;;;;;;;;;;;;;;;;;;;;;;;;;;;;;;;;;;;;;;;;;;;;;;;;;;;;;;;;;;;;;;;;;;;;;;;;
2010;[14264] NICOTRA E. (2010);samp. EL85;;ETNA/SICILY / ELLITTICO-MONGIBELLO TRANSITION SEQUENCE;PIANO DELLE CONCAZZE AREA, BETWEEN PIZZI DE NERI AND THE NORTH EAST CRATER;37.73;15;37.73;15;2790;2790;OUTCROP;;;SUBAERIAL;VOLCANIC ROCK;BENMOREITE;MESOPHYRIC, SERIATE;LAVA FLOW AT THE BOTTOM;15000;15000;PLEISTOCENE;;;;;;;MINERAL / COMPONENT (INCL. GROUNDMASS);PHLOGOPITE;;;;PRIMARY;;;;;41.3547;4.4207;;;;11.6431;0.0316;;;;;;;;;9.0517;;;0.0247;20.3688;0.1116;;;;;;8.5651;EMP (EPMA);;;1.183;;;;;;;;5.0436;0.1059;;;;;;;;;;;;;;;;;;;;;;;;;;;;;;;;;;;;;;;;;;;;;;;;;;;;;;;;;;;;;;;;;;;;;;;;;;;;;;;;;;;;;;;;;;;;;;;;;;;;;;;;;;;;;;;;;;;;;;;;;;;;;;;;;;;;;;;;;;;;;;;;;;;;;;;;;;;;;;;;;;;;;;;;;;;;;;;;;;;;;;;;;;;;;;;;;;;;;;;;;;;;;;;;;;;;;;;;;;;;;;;;;;;;;;;;;;;;;;;;;;;;;;;;;;;;;;;;;;;
2010;[14264] NICOTRA E. (2010);samp. EL85;;ETNA/SICILY / ELLITTICO-MONGIBELLO TRANSITION SEQUENCE;PIANO DELLE CONCAZZE AREA, BETWEEN PIZZI DE NERI AND THE NORTH EAST CRATER;37.73;15;37.73;15;2790;2790;OUTCROP;;;SUBAERIAL;VOLCANIC ROCK;BENMOREITE;MESOPHYRIC, SERIATE;LAVA FLOW AT THE BOTTOM;15000;15000;PLEISTOCENE;;;;;;;MINERAL / COMPONENT (INCL. GROUNDMASS);PHLOGOPITE;;;;PRIMARY;;;;;41.4779;4.2059;;;;11.2574;0.0379;;;;;;;;;8.4575;;;0;19.8271;0.1696;;;;;;8.4045;EMP (EPMA);;;1.0727;;;;;;;;6.0929;0.0808;;;;;;;;;;;;;;;;;;;;;;;;;;;;;;;;;;;;;;;;;;;;;;;;;;;;;;;;;;;;;;;;;;;;;;;;;;;;;;;;;;;;;;;;;;;;;;;;;;;;;;;;;;;;;;;;;;;;;;;;;;;;;;;;;;;;;;;;;;;;;;;;;;;;;;;;;;;;;;;;;;;;;;;;;;;;;;;;;;;;;;;;;;;;;;;;;;;;;;;;;;;;;;;;;;;;;;;;;;;;;;;;;;;;;;;;;;;;;;;;;;;;;;;;;;;;;;;;;;;
2010;[14264] NICOTRA E. (2010);samp. EL85;;ETNA/SICILY / ELLITTICO-MONGIBELLO TRANSITION SEQUENCE;PIANO DELLE CONCAZZE AREA, BETWEEN PIZZI DE NERI AND THE NORTH EAST CRATER;37.73;15;37.73;15;2790;2790;OUTCROP;;;SUBAERIAL;VOLCANIC ROCK;BENMOREITE;MESOPHYRIC, SERIATE;LAVA FLOW AT THE BOTTOM;15000;15000;PLEISTOCENE;;;;;;;MINERAL / COMPONENT (INCL. GROUNDMASS);PHLOGOPITE;;;;PRIMARY;;;;;42.5239;4.228;;;;11.2932;0;;;;;;;;;9.103;;;0.0289;20.447;0.0152;;;;;;8.7647;EMP (EPMA);;;0.963;;;;;;;;5.9833;0.0825;;;;;;;;;;;;;;;;;;;;;;;;;;;;;;;;;;;;;;;;;;;;;;;;;;;;;;;;;;;;;;;;;;;;;;;;;;;;;;;;;;;;;;;;;;;;;;;;;;;;;;;;;;;;;;;;;;;;;;;;;;;;;;;;;;;;;;;;;;;;;;;;;;;;;;;;;;;;;;;;;;;;;;;;;;;;;;;;;;;;;;;;;;;;;;;;;;;;;;;;;;;;;;;;;;;;;;;;;;;;;;;;;;;;;;;;;;;;;;;;;;;;;;;;;;;;;;;;;;;